 Entering Gaussian System, Link 0=g16
 Input=TDoptfreq_Osbpy_triplets_1.gjf
 Output=TDoptfreq_Osbpy_triplets_1.log
 Initial command:
 /usr/local/apps/g16.a03/g16/l1.exe "/share/scratch/848721/Gau-1147942.inp" -scrdir="/share/scratch/848721/"
 Entering Link 1 = /usr/local/apps/g16.a03/g16/l1.exe PID=   1147943.
  
 Copyright (c) 1988,1990,1992,1993,1995,1998,2003,2009,2016,
            Gaussian, Inc.  All Rights Reserved.
  
 This is part of the Gaussian(R) 16 program.  It is based on
 the Gaussian(R) 09 system (copyright 2009, Gaussian, Inc.),
 the Gaussian(R) 03 system (copyright 2003, Gaussian, Inc.),
 the Gaussian(R) 98 system (copyright 1998, Gaussian, Inc.),
 the Gaussian(R) 94 system (copyright 1995, Gaussian, Inc.),
 the Gaussian 92(TM) system (copyright 1992, Gaussian, Inc.),
 the Gaussian 90(TM) system (copyright 1990, Gaussian, Inc.),
 the Gaussian 88(TM) system (copyright 1988, Gaussian, Inc.),
 the Gaussian 86(TM) system (copyright 1986, Carnegie Mellon
 University), and the Gaussian 82(TM) system (copyright 1983,
 Carnegie Mellon University). Gaussian is a federally registered
 trademark of Gaussian, Inc.
  
 This software contains proprietary and confidential information,
 including trade secrets, belonging to Gaussian, Inc.
  
 This software is provided under written license and may be
 used, copied, transmitted, or stored only in accord with that
 written license.
  
 The following legend is applicable only to US Government
 contracts under FAR:
  
                    RESTRICTED RIGHTS LEGEND
  
 Use, reproduction and disclosure by the US Government is
 subject to restrictions as set forth in subparagraphs (a)
 and (c) of the Commercial Computer Software - Restricted
 Rights clause in FAR 52.227-19.
  
 Gaussian, Inc.
 340 Quinnipiac St., Bldg. 40, Wallingford CT 06492
  
  
 ---------------------------------------------------------------
 Warning -- This program may not be used in any manner that
 competes with the business of Gaussian, Inc. or will provide
 assistance to any competitor of Gaussian, Inc.  The licensee
 of this program is prohibited from giving any competitor of
 Gaussian, Inc. access to this program.  By using this program,
 the user acknowledges that Gaussian, Inc. is engaged in the
 business of creating and licensing software in the field of
 computational chemistry and represents and warrants to the
 licensee that it is not a competitor of Gaussian, Inc. and that
 it will not use this program in any manner prohibited above.
 ---------------------------------------------------------------
  

 Cite this work as:
 Gaussian 16, Revision A.03,
 M. J. Frisch, G. W. Trucks, H. B. Schlegel, G. E. Scuseria, 
 M. A. Robb, J. R. Cheeseman, G. Scalmani, V. Barone, 
 G. A. Petersson, H. Nakatsuji, X. Li, M. Caricato, A. V. Marenich, 
 J. Bloino, B. G. Janesko, R. Gomperts, B. Mennucci, H. P. Hratchian, 
 J. V. Ortiz, A. F. Izmaylov, J. L. Sonnenberg, D. Williams-Young, 
 F. Ding, F. Lipparini, F. Egidi, J. Goings, B. Peng, A. Petrone, 
 T. Henderson, D. Ranasinghe, V. G. Zakrzewski, J. Gao, N. Rega, 
 G. Zheng, W. Liang, M. Hada, M. Ehara, K. Toyota, R. Fukuda, 
 J. Hasegawa, M. Ishida, T. Nakajima, Y. Honda, O. Kitao, H. Nakai, 
 T. Vreven, K. Throssell, J. A. Montgomery, Jr., J. E. Peralta, 
 F. Ogliaro, M. J. Bearpark, J. J. Heyd, E. N. Brothers, K. N. Kudin, 
 V. N. Staroverov, T. A. Keith, R. Kobayashi, J. Normand, 
 K. Raghavachari, A. P. Rendell, J. C. Burant, S. S. Iyengar, 
 J. Tomasi, M. Cossi, J. M. Millam, M. Klene, C. Adamo, R. Cammi, 
 J. W. Ochterski, R. L. Martin, K. Morokuma, O. Farkas, 
 J. B. Foresman, and D. J. Fox, Gaussian, Inc., Wallingford CT, 2016.
 
 ******************************************
 Gaussian 16:  ES64L-G16RevA.03 25-Dec-2016
                21-Oct-2024 
 ******************************************
 %chk=TDoptfreq_Osbpy_triplets_1.chk
 %mem=48GB
 %nprocshared=16
 Will use up to   16 processors via shared memory.
 ----------------------------------------------------------------------
 #p opt freq=savenormalmodes td=(triplets,nstates=5,root=1)/genecp scrf
 =(solvent=acetonitrile,pcm) integral=grid=ultrafine scf=(tight,xqc) sy
 mmetry=none tpssh
 ----------------------------------------------------------------------
 1/18=20,19=15,26=6,38=1/1,3;
 2/9=110,12=2,15=3,17=6,18=5,40=1/2;
 3/5=7,11=9,16=1,17=8,25=1,30=1,70=2201,71=1,72=2,74=-35,75=-5/1,2,3,8;
 4//1;
 5/5=2,8=3,13=1,32=2,38=5,53=2/2,8;
 8/6=1,10=1,107=1,108=5/1;
 9/8=1,15=2,41=5,42=1,48=3,70=2/14;
 10/5=4,28=1,31=1/2;
 6/7=2,8=2,9=2,10=2/1;
 7/12=6,13=5,14=1,30=1,92=1/1,2,3,16;
 1/18=20,19=15,26=6/3(2);
 2/9=110,15=3/2;
 99//99;
 2/9=110,15=3/2;
 3/5=7,6=1,11=9,16=1,17=8,25=1,30=1,70=2205,71=1,72=2,74=-35,75=-5,82=7/1,2,3,8;
 4/5=5,16=3,69=1/1;
 5/5=2,8=3,13=1,32=2,38=5,53=2/2,8;
 8/6=1,10=1,107=1,108=5/1;
 9/8=1,15=2,41=5,42=1,48=3,49=4,70=2/14;
 10/5=4,28=1,31=1/2;
 7/12=6,13=5,14=1,30=1,92=1/1,2,3,16;
 1/18=20,19=15,26=6/3(-8);
 2/9=110,15=3/2;
 6/7=2,8=2,9=2,10=2/1;
 99//99;
 Leave Link    1 at Mon Oct 21 18:58:06 2024, MaxMem=  6442450944 cpu:               9.0 elap:               0.6
 (Enter /usr/local/apps/g16.a03/g16/l101.exe)
 ------
 Osmium
 ------
 Symbolic Z-matrix:
 Charge =  2 Multiplicity = 1
 N                    0     1.50009   1.01217  -1.03967 
 C                    0     1.82569   2.25937  -0.58063 
 C                    0     2.82846   3.01405  -1.19189 
 C                    0     3.51434   2.49736  -2.28378 
 C                    0     3.17917   1.22528  -2.74552 
 C                    0     2.17518   0.51865  -2.10226 
 H                    0     3.07303   3.99879  -0.81554 
 H                    0     4.29427   3.0761   -2.76365 
 H                    0     3.68386   0.77775  -3.59256 
 H                    0     1.88016  -0.4686   -2.43057 
 N                    0    -1.62822   0.79424  -1.0368 
 N                    0     0.12827  -1.80699  -1.03684 
 N                    0     0.12827   1.80699   1.03684 
 N                    0     1.50009  -1.01217   1.03967 
 N                    0    -1.62822  -0.79423   1.0368 
 C                    0     1.04352   2.71237   0.57327 
 C                    0    -2.87061   0.45428  -0.57513 
 C                    0    -1.53923   1.62901  -2.09674 
 C                    0     1.04352  -2.71237  -0.57327 
 C                    0    -0.63414  -2.14657  -2.10064 
 C                    0    -0.63414   2.14657   2.10064 
 C                    0     1.82569  -2.25937   0.58063 
 C                    0     2.17518  -0.51865   2.10226 
 C                    0    -2.87061  -0.45428   0.57513 
 C                    0    -1.53923  -1.62901   2.09674 
 C                    0     1.19599   3.95958   1.18125 
 C                    0    -4.02588   0.95149  -1.18079 
 C                    0    -2.65359   2.15107  -2.73453 
 H                    0    -0.53687   1.86517  -2.42661 
 C                    0     1.19599  -3.95958  -1.18125 
 C                    0    -0.52331  -3.37083  -2.74111 
 H                    0    -1.34073  -1.39806  -2.43211 
 C                    0    -0.52331   3.37083   2.74111 
 H                    0    -1.34073   1.39806   2.43211 
 C                    0     2.82846  -3.01405   1.19189 
 C                    0     3.17917  -1.22529   2.74552 
 H                    0     1.88016   0.4686    2.43057 
 C                    0    -4.02588  -0.95149   1.18079 
 C                    0    -2.65359  -2.15107   2.73453 
 H                    0    -0.53688  -1.86517   2.42661 
 C                    0     0.40849   4.29701   2.27465 
 H                    0     1.92457   4.66346   0.80107 
 C                    0    -3.92232   1.80764  -2.26973 
 H                    0    -5.00075   0.67321  -0.80249 
 H                    0    -2.51922   2.81479  -3.57947 
 C                    0     0.40849  -4.29701  -2.27465 
 H                    0     1.92457  -4.66346  -0.80107 
 H                    0    -1.16091  -3.58562  -3.58957 
 H                    0    -1.16091   3.58562   3.58957 
 C                    0     3.51434  -2.49736   2.28378 
 H                    0     3.07303  -3.99879   0.81554 
 H                    0     3.68386  -0.77775   3.59256 
 C                    0    -3.92232  -1.80764   2.26973 
 H                    0    -5.00075  -0.67321   0.80249 
 H                    0    -2.51922  -2.81479   3.57947 
 H                    0     0.52036   5.26314   2.75173 
 H                    0    -4.81402   2.19865  -2.74464 
 H                    0     0.52036  -5.26314  -2.75173 
 H                    0     4.29427  -3.07611   2.76365 
 H                    0    -4.81402  -2.19865   2.74464 
 Os                   0     0.        0.        0. 
 
 ITRead=  0  0  0  0  0  0  0  0  0  0  0  0  0  0  0  0  0  0  0  0
 ITRead=  0  0  0  0  0  0  0  0  0  0  0  0  0  0  0  0  0  0  0  0
 ITRead=  0  0  0  0  0  0  0  0  0  0  0  0  0  0  0  0  0  0  0  0
 ITRead=  0
 MicOpt= -1 -1 -1 -1 -1 -1 -1 -1 -1 -1 -1 -1 -1 -1 -1 -1 -1 -1 -1 -1
 MicOpt= -1 -1 -1 -1 -1 -1 -1 -1 -1 -1 -1 -1 -1 -1 -1 -1 -1 -1 -1 -1
 MicOpt= -1 -1 -1 -1 -1 -1 -1 -1 -1 -1 -1 -1 -1 -1 -1 -1 -1 -1 -1 -1
 MicOpt= -1
 NAtoms=     61 NQM=       61 NQMF=       0 NMMI=      0 NMMIF=      0
                NMic=       0 NMicF=      0.
                    Isotopes and Nuclear Properties:
 (Nuclear quadrupole moments (NQMom) in fm**2, nuclear magnetic moments (NMagM)
  in nuclear magnetons)

  Atom         1           2           3           4           5           6           7           8           9          10
 IAtWgt=          14          12          12          12          12          12           1           1           1           1
 AtmWgt=  14.0030740  12.0000000  12.0000000  12.0000000  12.0000000  12.0000000   1.0078250   1.0078250   1.0078250   1.0078250
 NucSpn=           2           0           0           0           0           0           1           1           1           1
 AtZEff=   0.0000000   0.0000000   0.0000000   0.0000000   0.0000000   0.0000000   0.0000000   0.0000000   0.0000000   0.0000000
 NQMom=    2.0440000   0.0000000   0.0000000   0.0000000   0.0000000   0.0000000   0.0000000   0.0000000   0.0000000   0.0000000
 NMagM=    0.4037610   0.0000000   0.0000000   0.0000000   0.0000000   0.0000000   2.7928460   2.7928460   2.7928460   2.7928460
 AtZNuc=   7.0000000   6.0000000   6.0000000   6.0000000   6.0000000   6.0000000   1.0000000   1.0000000   1.0000000   1.0000000

  Atom        11          12          13          14          15          16          17          18          19          20
 IAtWgt=          14          14          14          14          14          12          12          12          12          12
 AtmWgt=  14.0030740  14.0030740  14.0030740  14.0030740  14.0030740  12.0000000  12.0000000  12.0000000  12.0000000  12.0000000
 NucSpn=           2           2           2           2           2           0           0           0           0           0
 AtZEff=   0.0000000   0.0000000   0.0000000   0.0000000   0.0000000   0.0000000   0.0000000   0.0000000   0.0000000   0.0000000
 NQMom=    2.0440000   2.0440000   2.0440000   2.0440000   2.0440000   0.0000000   0.0000000   0.0000000   0.0000000   0.0000000
 NMagM=    0.4037610   0.4037610   0.4037610   0.4037610   0.4037610   0.0000000   0.0000000   0.0000000   0.0000000   0.0000000
 AtZNuc=   7.0000000   7.0000000   7.0000000   7.0000000   7.0000000   6.0000000   6.0000000   6.0000000   6.0000000   6.0000000

  Atom        21          22          23          24          25          26          27          28          29          30
 IAtWgt=          12          12          12          12          12          12          12          12           1          12
 AtmWgt=  12.0000000  12.0000000  12.0000000  12.0000000  12.0000000  12.0000000  12.0000000  12.0000000   1.0078250  12.0000000
 NucSpn=           0           0           0           0           0           0           0           0           1           0
 AtZEff=   0.0000000   0.0000000   0.0000000   0.0000000   0.0000000   0.0000000   0.0000000   0.0000000   0.0000000   0.0000000
 NQMom=    0.0000000   0.0000000   0.0000000   0.0000000   0.0000000   0.0000000   0.0000000   0.0000000   0.0000000   0.0000000
 NMagM=    0.0000000   0.0000000   0.0000000   0.0000000   0.0000000   0.0000000   0.0000000   0.0000000   2.7928460   0.0000000
 AtZNuc=   6.0000000   6.0000000   6.0000000   6.0000000   6.0000000   6.0000000   6.0000000   6.0000000   1.0000000   6.0000000

  Atom        31          32          33          34          35          36          37          38          39          40
 IAtWgt=          12           1          12           1          12          12           1          12          12           1
 AtmWgt=  12.0000000   1.0078250  12.0000000   1.0078250  12.0000000  12.0000000   1.0078250  12.0000000  12.0000000   1.0078250
 NucSpn=           0           1           0           1           0           0           1           0           0           1
 AtZEff=   0.0000000   0.0000000   0.0000000   0.0000000   0.0000000   0.0000000   0.0000000   0.0000000   0.0000000   0.0000000
 NQMom=    0.0000000   0.0000000   0.0000000   0.0000000   0.0000000   0.0000000   0.0000000   0.0000000   0.0000000   0.0000000
 NMagM=    0.0000000   2.7928460   0.0000000   2.7928460   0.0000000   0.0000000   2.7928460   0.0000000   0.0000000   2.7928460
 AtZNuc=   6.0000000   1.0000000   6.0000000   1.0000000   6.0000000   6.0000000   1.0000000   6.0000000   6.0000000   1.0000000

  Atom        41          42          43          44          45          46          47          48          49          50
 IAtWgt=          12           1          12           1           1          12           1           1           1          12
 AtmWgt=  12.0000000   1.0078250  12.0000000   1.0078250   1.0078250  12.0000000   1.0078250   1.0078250   1.0078250  12.0000000
 NucSpn=           0           1           0           1           1           0           1           1           1           0
 AtZEff=   0.0000000   0.0000000   0.0000000   0.0000000   0.0000000   0.0000000   0.0000000   0.0000000   0.0000000   0.0000000
 NQMom=    0.0000000   0.0000000   0.0000000   0.0000000   0.0000000   0.0000000   0.0000000   0.0000000   0.0000000   0.0000000
 NMagM=    0.0000000   2.7928460   0.0000000   2.7928460   2.7928460   0.0000000   2.7928460   2.7928460   2.7928460   0.0000000
 AtZNuc=   6.0000000   1.0000000   6.0000000   1.0000000   1.0000000   6.0000000   1.0000000   1.0000000   1.0000000   6.0000000

  Atom        51          52          53          54          55          56          57          58          59          60
 IAtWgt=           1           1          12           1           1           1           1           1           1           1
 AtmWgt=   1.0078250   1.0078250  12.0000000   1.0078250   1.0078250   1.0078250   1.0078250   1.0078250   1.0078250   1.0078250
 NucSpn=           1           1           0           1           1           1           1           1           1           1
 AtZEff=   0.0000000   0.0000000   0.0000000   0.0000000   0.0000000   0.0000000   0.0000000   0.0000000   0.0000000   0.0000000
 NQMom=    0.0000000   0.0000000   0.0000000   0.0000000   0.0000000   0.0000000   0.0000000   0.0000000   0.0000000   0.0000000
 NMagM=    2.7928460   2.7928460   0.0000000   2.7928460   2.7928460   2.7928460   2.7928460   2.7928460   2.7928460   2.7928460
 AtZNuc=   1.0000000   1.0000000   6.0000000   1.0000000   1.0000000   1.0000000   1.0000000   1.0000000   1.0000000   1.0000000

  Atom        61
 IAtWgt=         190
 AtmWgt= 189.9586000
 NucSpn=           0
 AtZEff=   0.0000000
 NQMom=    0.0000000
 NMagM=    0.0000000
 AtZNuc=  76.0000000
 Leave Link  101 at Mon Oct 21 18:58:07 2024, MaxMem=  6442450944 cpu:               8.9 elap:               0.6
 (Enter /usr/local/apps/g16.a03/g16/l103.exe)

 GradGradGradGradGradGradGradGradGradGradGradGradGradGradGradGradGradGrad
 Berny optimization.
 Initialization pass.
                           ----------------------------
                           !    Initial Parameters    !
                           ! (Angstroms and Degrees)  !
 --------------------------                            --------------------------
 ! Name  Definition              Value          Derivative Info.                !
 --------------------------------------------------------------------------------
 ! R1    R(1,2)                  1.3683         estimate D2E/DX2                !
 ! R2    R(1,6)                  1.3522         estimate D2E/DX2                !
 ! R3    R(1,61)                 2.087          estimate D2E/DX2                !
 ! R4    R(2,3)                  1.396          estimate D2E/DX2                !
 ! R5    R(2,16)                 1.4658         estimate D2E/DX2                !
 ! R6    R(3,4)                  1.3891         estimate D2E/DX2                !
 ! R7    R(3,7)                  1.0822         estimate D2E/DX2                !
 ! R8    R(4,5)                  1.3942         estimate D2E/DX2                !
 ! R9    R(4,8)                  1.0833         estimate D2E/DX2                !
 ! R10   R(5,6)                  1.386          estimate D2E/DX2                !
 ! R11   R(5,9)                  1.0828         estimate D2E/DX2                !
 ! R12   R(6,10)                 1.0814         estimate D2E/DX2                !
 ! R13   R(11,17)                1.3683         estimate D2E/DX2                !
 ! R14   R(11,18)                1.3521         estimate D2E/DX2                !
 ! R15   R(11,61)                2.0873         estimate D2E/DX2                !
 ! R16   R(12,19)                1.3683         estimate D2E/DX2                !
 ! R17   R(12,20)                1.3521         estimate D2E/DX2                !
 ! R18   R(12,61)                2.0873         estimate D2E/DX2                !
 ! R19   R(13,16)                1.3683         estimate D2E/DX2                !
 ! R20   R(13,21)                1.3521         estimate D2E/DX2                !
 ! R21   R(13,61)                2.0873         estimate D2E/DX2                !
 ! R22   R(14,22)                1.3683         estimate D2E/DX2                !
 ! R23   R(14,23)                1.3522         estimate D2E/DX2                !
 ! R24   R(14,61)                2.087          estimate D2E/DX2                !
 ! R25   R(15,24)                1.3683         estimate D2E/DX2                !
 ! R26   R(15,25)                1.3521         estimate D2E/DX2                !
 ! R27   R(15,61)                2.0873         estimate D2E/DX2                !
 ! R28   R(16,26)                1.3959         estimate D2E/DX2                !
 ! R29   R(17,24)                1.4658         estimate D2E/DX2                !
 ! R30   R(17,27)                1.396          estimate D2E/DX2                !
 ! R31   R(18,28)                1.386          estimate D2E/DX2                !
 ! R32   R(18,29)                1.0813         estimate D2E/DX2                !
 ! R33   R(19,22)                1.4658         estimate D2E/DX2                !
 ! R34   R(19,30)                1.3959         estimate D2E/DX2                !
 ! R35   R(20,31)                1.3861         estimate D2E/DX2                !
 ! R36   R(20,32)                1.0814         estimate D2E/DX2                !
 ! R37   R(21,33)                1.3861         estimate D2E/DX2                !
 ! R38   R(21,34)                1.0814         estimate D2E/DX2                !
 ! R39   R(22,35)                1.396          estimate D2E/DX2                !
 ! R40   R(23,36)                1.386          estimate D2E/DX2                !
 ! R41   R(23,37)                1.0814         estimate D2E/DX2                !
 ! R42   R(24,38)                1.396          estimate D2E/DX2                !
 ! R43   R(25,39)                1.386          estimate D2E/DX2                !
 ! R44   R(25,40)                1.0813         estimate D2E/DX2                !
 ! R45   R(26,41)                1.3891         estimate D2E/DX2                !
 ! R46   R(26,42)                1.082          estimate D2E/DX2                !
 ! R47   R(27,43)                1.3891         estimate D2E/DX2                !
 ! R48   R(27,44)                1.0821         estimate D2E/DX2                !
 ! R49   R(28,43)                1.3941         estimate D2E/DX2                !
 ! R50   R(28,45)                1.0828         estimate D2E/DX2                !
 ! R51   R(30,46)                1.3891         estimate D2E/DX2                !
 ! R52   R(30,47)                1.082          estimate D2E/DX2                !
 ! R53   R(31,46)                1.3941         estimate D2E/DX2                !
 ! R54   R(31,48)                1.0828         estimate D2E/DX2                !
 ! R55   R(33,41)                1.3941         estimate D2E/DX2                !
 ! R56   R(33,49)                1.0828         estimate D2E/DX2                !
 ! R57   R(35,50)                1.3891         estimate D2E/DX2                !
 ! R58   R(35,51)                1.0822         estimate D2E/DX2                !
 ! R59   R(36,50)                1.3942         estimate D2E/DX2                !
 ! R60   R(36,52)                1.0828         estimate D2E/DX2                !
 ! R61   R(38,53)                1.3891         estimate D2E/DX2                !
 ! R62   R(38,54)                1.0821         estimate D2E/DX2                !
 ! R63   R(39,53)                1.3941         estimate D2E/DX2                !
 ! R64   R(39,55)                1.0828         estimate D2E/DX2                !
 ! R65   R(41,56)                1.0833         estimate D2E/DX2                !
 ! R66   R(43,57)                1.0833         estimate D2E/DX2                !
 ! R67   R(46,58)                1.0833         estimate D2E/DX2                !
 ! R68   R(50,59)                1.0833         estimate D2E/DX2                !
 ! R69   R(53,60)                1.0833         estimate D2E/DX2                !
 ! A1    A(2,1,6)              118.5225         estimate D2E/DX2                !
 ! A2    A(2,1,61)             116.4859         estimate D2E/DX2                !
 ! A3    A(6,1,61)             124.9815         estimate D2E/DX2                !
 ! A4    A(1,2,3)              121.1182         estimate D2E/DX2                !
 ! A5    A(1,2,16)             114.7604         estimate D2E/DX2                !
 ! A6    A(3,2,16)             124.1211         estimate D2E/DX2                !
 ! A7    A(2,3,4)              119.8531         estimate D2E/DX2                !
 ! A8    A(2,3,7)              120.1315         estimate D2E/DX2                !
 ! A9    A(4,3,7)              120.0153         estimate D2E/DX2                !
 ! A10   A(3,4,5)              118.7518         estimate D2E/DX2                !
 ! A11   A(3,4,8)              120.329          estimate D2E/DX2                !
 ! A12   A(5,4,8)              120.9193         estimate D2E/DX2                !
 ! A13   A(4,5,6)              119.0521         estimate D2E/DX2                !
 ! A14   A(4,5,9)              121.6107         estimate D2E/DX2                !
 ! A15   A(6,5,9)              119.3372         estimate D2E/DX2                !
 ! A16   A(1,6,5)              122.7021         estimate D2E/DX2                !
 ! A17   A(1,6,10)             115.8212         estimate D2E/DX2                !
 ! A18   A(5,6,10)             121.4756         estimate D2E/DX2                !
 ! A19   A(17,11,18)           118.5313         estimate D2E/DX2                !
 ! A20   A(17,11,61)           116.4968         estimate D2E/DX2                !
 ! A21   A(18,11,61)           124.9567         estimate D2E/DX2                !
 ! A22   A(19,12,20)           118.5237         estimate D2E/DX2                !
 ! A23   A(19,12,61)           116.4645         estimate D2E/DX2                !
 ! A24   A(20,12,61)           125.0007         estimate D2E/DX2                !
 ! A25   A(16,13,21)           118.5236         estimate D2E/DX2                !
 ! A26   A(16,13,61)           116.4646         estimate D2E/DX2                !
 ! A27   A(21,13,61)           125.0007         estimate D2E/DX2                !
 ! A28   A(22,14,23)           118.5224         estimate D2E/DX2                !
 ! A29   A(22,14,61)           116.4859         estimate D2E/DX2                !
 ! A30   A(23,14,61)           124.9816         estimate D2E/DX2                !
 ! A31   A(24,15,25)           118.5313         estimate D2E/DX2                !
 ! A32   A(24,15,61)           116.4968         estimate D2E/DX2                !
 ! A33   A(25,15,61)           124.9567         estimate D2E/DX2                !
 ! A34   A(2,16,13)            114.7801         estimate D2E/DX2                !
 ! A35   A(2,16,26)            124.1075         estimate D2E/DX2                !
 ! A36   A(13,16,26)           121.112          estimate D2E/DX2                !
 ! A37   A(11,17,24)           114.7569         estimate D2E/DX2                !
 ! A38   A(11,17,27)           121.1014         estimate D2E/DX2                !
 ! A39   A(24,17,27)           124.1415         estimate D2E/DX2                !
 ! A40   A(11,18,28)           122.7065         estimate D2E/DX2                !
 ! A41   A(11,18,29)           115.7838         estimate D2E/DX2                !
 ! A42   A(28,18,29)           121.5088         estimate D2E/DX2                !
 ! A43   A(12,19,22)           114.7802         estimate D2E/DX2                !
 ! A44   A(12,19,30)           121.112          estimate D2E/DX2                !
 ! A45   A(22,19,30)           124.1074         estimate D2E/DX2                !
 ! A46   A(12,20,31)           122.702          estimate D2E/DX2                !
 ! A47   A(12,20,32)           115.833          estimate D2E/DX2                !
 ! A48   A(31,20,32)           121.4642         estimate D2E/DX2                !
 ! A49   A(13,21,33)           122.702          estimate D2E/DX2                !
 ! A50   A(13,21,34)           115.8329         estimate D2E/DX2                !
 ! A51   A(33,21,34)           121.4642         estimate D2E/DX2                !
 ! A52   A(14,22,19)           114.7603         estimate D2E/DX2                !
 ! A53   A(14,22,35)           121.1183         estimate D2E/DX2                !
 ! A54   A(19,22,35)           124.1212         estimate D2E/DX2                !
 ! A55   A(14,23,36)           122.7022         estimate D2E/DX2                !
 ! A56   A(14,23,37)           115.8212         estimate D2E/DX2                !
 ! A57   A(36,23,37)           121.4756         estimate D2E/DX2                !
 ! A58   A(15,24,17)           114.7569         estimate D2E/DX2                !
 ! A59   A(15,24,38)           121.1015         estimate D2E/DX2                !
 ! A60   A(17,24,38)           124.1414         estimate D2E/DX2                !
 ! A61   A(15,25,39)           122.7065         estimate D2E/DX2                !
 ! A62   A(15,25,40)           115.7839         estimate D2E/DX2                !
 ! A63   A(39,25,40)           121.5088         estimate D2E/DX2                !
 ! A64   A(16,26,41)           119.8658         estimate D2E/DX2                !
 ! A65   A(16,26,42)           120.1154         estimate D2E/DX2                !
 ! A66   A(41,26,42)           120.0187         estimate D2E/DX2                !
 ! A67   A(17,27,43)           119.8644         estimate D2E/DX2                !
 ! A68   A(17,27,44)           120.1525         estimate D2E/DX2                !
 ! A69   A(43,27,44)           119.983          estimate D2E/DX2                !
 ! A70   A(18,28,43)           119.043          estimate D2E/DX2                !
 ! A71   A(18,28,45)           119.3512         estimate D2E/DX2                !
 ! A72   A(43,28,45)           121.6058         estimate D2E/DX2                !
 ! A73   A(19,30,46)           119.8658         estimate D2E/DX2                !
 ! A74   A(19,30,47)           120.1154         estimate D2E/DX2                !
 ! A75   A(46,30,47)           120.0187         estimate D2E/DX2                !
 ! A76   A(20,31,46)           119.0516         estimate D2E/DX2                !
 ! A77   A(20,31,48)           119.351          estimate D2E/DX2                !
 ! A78   A(46,31,48)           121.5974         estimate D2E/DX2                !
 ! A79   A(21,33,41)           119.0517         estimate D2E/DX2                !
 ! A80   A(21,33,49)           119.3509         estimate D2E/DX2                !
 ! A81   A(41,33,49)           121.5974         estimate D2E/DX2                !
 ! A82   A(22,35,50)           119.8531         estimate D2E/DX2                !
 ! A83   A(22,35,51)           120.1315         estimate D2E/DX2                !
 ! A84   A(50,35,51)           120.0153         estimate D2E/DX2                !
 ! A85   A(23,36,50)           119.052          estimate D2E/DX2                !
 ! A86   A(23,36,52)           119.3372         estimate D2E/DX2                !
 ! A87   A(50,36,52)           121.6107         estimate D2E/DX2                !
 ! A88   A(24,38,53)           119.8643         estimate D2E/DX2                !
 ! A89   A(24,38,54)           120.1526         estimate D2E/DX2                !
 ! A90   A(53,38,54)           119.983          estimate D2E/DX2                !
 ! A91   A(25,39,53)           119.043          estimate D2E/DX2                !
 ! A92   A(25,39,55)           119.3512         estimate D2E/DX2                !
 ! A93   A(53,39,55)           121.6058         estimate D2E/DX2                !
 ! A94   A(26,41,33)           118.7447         estimate D2E/DX2                !
 ! A95   A(26,41,56)           120.3152         estimate D2E/DX2                !
 ! A96   A(33,41,56)           120.9401         estimate D2E/DX2                !
 ! A97   A(27,43,28)           118.7532         estimate D2E/DX2                !
 ! A98   A(27,43,57)           120.316          estimate D2E/DX2                !
 ! A99   A(28,43,57)           120.9308         estimate D2E/DX2                !
 ! A100  A(30,46,31)           118.7447         estimate D2E/DX2                !
 ! A101  A(30,46,58)           120.3152         estimate D2E/DX2                !
 ! A102  A(31,46,58)           120.9401         estimate D2E/DX2                !
 ! A103  A(35,50,36)           118.7518         estimate D2E/DX2                !
 ! A104  A(35,50,59)           120.329          estimate D2E/DX2                !
 ! A105  A(36,50,59)           120.9192         estimate D2E/DX2                !
 ! A106  A(38,53,39)           118.7533         estimate D2E/DX2                !
 ! A107  A(38,53,60)           120.3159         estimate D2E/DX2                !
 ! A108  A(39,53,60)           120.9308         estimate D2E/DX2                !
 ! A109  A(1,61,11)             97.3943         estimate D2E/DX2                !
 ! A110  A(1,61,12)             97.3674         estimate D2E/DX2                !
 ! A111  A(1,61,13)             77.4921         estimate D2E/DX2                !
 ! A112  A(1,61,14)             88.0941         estimate D2E/DX2                !
 ! A113  A(11,61,12)            97.5048         estimate D2E/DX2                !
 ! A114  A(11,61,13)            88.0095         estimate D2E/DX2                !
 ! A115  A(11,61,15)            77.4685         estimate D2E/DX2                !
 ! A116  A(12,61,14)            77.4921         estimate D2E/DX2                !
 ! A117  A(12,61,15)            88.0095         estimate D2E/DX2                !
 ! A118  A(13,61,14)            97.3674         estimate D2E/DX2                !
 ! A119  A(13,61,15)            97.5048         estimate D2E/DX2                !
 ! A120  A(14,61,15)            97.3943         estimate D2E/DX2                !
 ! A121  L(1,61,15,11,-1)      174.8628         estimate D2E/DX2                !
 ! A122  L(11,61,14,1,-1)      185.4885         estimate D2E/DX2                !
 ! A123  L(12,61,13,1,-1)      174.8595         estimate D2E/DX2                !
 ! A124  L(1,61,15,11,-2)      184.7466         estimate D2E/DX2                !
 ! A125  L(11,61,14,1,-2)      184.2709         estimate D2E/DX2                !
 ! A126  L(12,61,13,1,-2)      184.895          estimate D2E/DX2                !
 ! D1    D(6,1,2,3)              0.1803         estimate D2E/DX2                !
 ! D2    D(6,1,2,16)          -179.9876         estimate D2E/DX2                !
 ! D3    D(61,1,2,3)           179.0835         estimate D2E/DX2                !
 ! D4    D(61,1,2,16)           -1.0844         estimate D2E/DX2                !
 ! D5    D(2,1,6,5)             -0.1609         estimate D2E/DX2                !
 ! D6    D(2,1,6,10)          -179.7901         estimate D2E/DX2                !
 ! D7    D(61,1,6,5)          -178.9627         estimate D2E/DX2                !
 ! D8    D(61,1,6,10)            1.4081         estimate D2E/DX2                !
 ! D9    D(2,1,61,11)           86.6439         estimate D2E/DX2                !
 ! D10   D(2,1,61,12)         -174.7534         estimate D2E/DX2                !
 ! D11   D(2,1,61,13)            0.3516         estimate D2E/DX2                !
 ! D12   D(2,1,61,14)          -97.627          estimate D2E/DX2                !
 ! D13   D(6,1,61,11)          -94.5322         estimate D2E/DX2                !
 ! D14   D(6,1,61,12)            4.0704         estimate D2E/DX2                !
 ! D15   D(6,1,61,13)          179.1754         estimate D2E/DX2                !
 ! D16   D(6,1,61,14)           81.1969         estimate D2E/DX2                !
 ! D17   D(1,2,3,4)             -0.1141         estimate D2E/DX2                !
 ! D18   D(1,2,3,7)           -179.9959         estimate D2E/DX2                !
 ! D19   D(16,2,3,4)          -179.93           estimate D2E/DX2                !
 ! D20   D(16,2,3,7)             0.1883         estimate D2E/DX2                !
 ! D21   D(1,2,16,13)            1.4939         estimate D2E/DX2                !
 ! D22   D(1,2,16,26)         -178.7501         estimate D2E/DX2                !
 ! D23   D(3,2,16,13)         -178.6797         estimate D2E/DX2                !
 ! D24   D(3,2,16,26)            1.0763         estimate D2E/DX2                !
 ! D25   D(2,3,4,5)              0.0226         estimate D2E/DX2                !
 ! D26   D(2,3,4,8)           -179.9651         estimate D2E/DX2                !
 ! D27   D(7,3,4,5)            179.9045         estimate D2E/DX2                !
 ! D28   D(7,3,4,8)             -0.0832         estimate D2E/DX2                !
 ! D29   D(3,4,5,6)             -0.0013         estimate D2E/DX2                !
 ! D30   D(3,4,5,9)           -179.9862         estimate D2E/DX2                !
 ! D31   D(8,4,5,6)            179.9863         estimate D2E/DX2                !
 ! D32   D(8,4,5,9)              0.0015         estimate D2E/DX2                !
 ! D33   D(4,5,6,1)              0.0724         estimate D2E/DX2                !
 ! D34   D(4,5,6,10)           179.681          estimate D2E/DX2                !
 ! D35   D(9,5,6,1)           -179.9424         estimate D2E/DX2                !
 ! D36   D(9,5,6,10)            -0.3338         estimate D2E/DX2                !
 ! D37   D(18,11,17,24)        179.9745         estimate D2E/DX2                !
 ! D38   D(18,11,17,27)          0.1306         estimate D2E/DX2                !
 ! D39   D(61,11,17,24)         -1.3738         estimate D2E/DX2                !
 ! D40   D(61,11,17,27)        178.7823         estimate D2E/DX2                !
 ! D41   D(17,11,18,28)         -0.1224         estimate D2E/DX2                !
 ! D42   D(17,11,18,29)       -179.7927         estimate D2E/DX2                !
 ! D43   D(61,11,18,28)       -178.6502         estimate D2E/DX2                !
 ! D44   D(61,11,18,29)          1.6795         estimate D2E/DX2                !
 ! D45   D(17,11,61,1)        -174.7444         estimate D2E/DX2                !
 ! D46   D(17,11,61,12)         86.7723         estimate D2E/DX2                !
 ! D47   D(17,11,61,13)        -97.6316         estimate D2E/DX2                !
 ! D48   D(17,11,61,15)          0.509          estimate D2E/DX2                !
 ! D49   D(18,11,61,1)           3.8103         estimate D2E/DX2                !
 ! D50   D(18,11,61,12)        -94.6729         estimate D2E/DX2                !
 ! D51   D(18,11,61,13)         80.9231         estimate D2E/DX2                !
 ! D52   D(18,11,61,15)        179.0637         estimate D2E/DX2                !
 ! D53   D(20,12,19,22)        179.9394         estimate D2E/DX2                !
 ! D54   D(20,12,19,30)          0.1754         estimate D2E/DX2                !
 ! D55   D(61,12,19,22)         -1.2108         estimate D2E/DX2                !
 ! D56   D(61,12,19,30)        179.0252         estimate D2E/DX2                !
 ! D57   D(19,12,20,31)         -0.183          estimate D2E/DX2                !
 ! D58   D(19,12,20,32)       -179.8445         estimate D2E/DX2                !
 ! D59   D(61,12,20,31)       -178.926          estimate D2E/DX2                !
 ! D60   D(61,12,20,32)          1.4125         estimate D2E/DX2                !
 ! D61   D(19,12,61,1)          86.8847         estimate D2E/DX2                !
 ! D62   D(19,12,61,11)       -174.6087         estimate D2E/DX2                !
 ! D63   D(19,12,61,14)          0.4986         estimate D2E/DX2                !
 ! D64   D(19,12,61,15)        -97.527          estimate D2E/DX2                !
 ! D65   D(20,12,61,1)         -94.349          estimate D2E/DX2                !
 ! D66   D(20,12,61,11)          4.1576         estimate D2E/DX2                !
 ! D67   D(20,12,61,14)        179.2649         estimate D2E/DX2                !
 ! D68   D(20,12,61,15)         81.2393         estimate D2E/DX2                !
 ! D69   D(21,13,16,2)         179.9394         estimate D2E/DX2                !
 ! D70   D(21,13,16,26)          0.1754         estimate D2E/DX2                !
 ! D71   D(61,13,16,2)          -1.2108         estimate D2E/DX2                !
 ! D72   D(61,13,16,26)        179.0252         estimate D2E/DX2                !
 ! D73   D(16,13,21,33)         -0.183          estimate D2E/DX2                !
 ! D74   D(16,13,21,34)       -179.8444         estimate D2E/DX2                !
 ! D75   D(61,13,21,33)       -178.926          estimate D2E/DX2                !
 ! D76   D(61,13,21,34)          1.4126         estimate D2E/DX2                !
 ! D77   D(16,13,61,1)           0.4986         estimate D2E/DX2                !
 ! D78   D(16,13,61,11)        -97.527          estimate D2E/DX2                !
 ! D79   D(16,13,61,14)         86.8847         estimate D2E/DX2                !
 ! D80   D(16,13,61,15)       -174.6087         estimate D2E/DX2                !
 ! D81   D(21,13,61,1)         179.2648         estimate D2E/DX2                !
 ! D82   D(21,13,61,11)         81.2392         estimate D2E/DX2                !
 ! D83   D(21,13,61,14)        -94.3491         estimate D2E/DX2                !
 ! D84   D(21,13,61,15)          4.1575         estimate D2E/DX2                !
 ! D85   D(23,14,22,19)       -179.9876         estimate D2E/DX2                !
 ! D86   D(23,14,22,35)          0.1802         estimate D2E/DX2                !
 ! D87   D(61,14,22,19)         -1.0843         estimate D2E/DX2                !
 ! D88   D(61,14,22,35)        179.0835         estimate D2E/DX2                !
 ! D89   D(22,14,23,36)         -0.1609         estimate D2E/DX2                !
 ! D90   D(22,14,23,37)       -179.79           estimate D2E/DX2                !
 ! D91   D(61,14,23,36)       -178.9628         estimate D2E/DX2                !
 ! D92   D(61,14,23,37)          1.4081         estimate D2E/DX2                !
 ! D93   D(22,14,61,1)         -97.627          estimate D2E/DX2                !
 ! D94   D(22,14,61,12)          0.3516         estimate D2E/DX2                !
 ! D95   D(22,14,61,13)       -174.7535         estimate D2E/DX2                !
 ! D96   D(22,14,61,15)         86.6439         estimate D2E/DX2                !
 ! D97   D(23,14,61,1)          81.1969         estimate D2E/DX2                !
 ! D98   D(23,14,61,12)        179.1755         estimate D2E/DX2                !
 ! D99   D(23,14,61,13)          4.0704         estimate D2E/DX2                !
 ! D100  D(23,14,61,15)        -94.5322         estimate D2E/DX2                !
 ! D101  D(25,15,24,17)        179.9745         estimate D2E/DX2                !
 ! D102  D(25,15,24,38)          0.1307         estimate D2E/DX2                !
 ! D103  D(61,15,24,17)         -1.3738         estimate D2E/DX2                !
 ! D104  D(61,15,24,38)        178.7824         estimate D2E/DX2                !
 ! D105  D(24,15,25,39)         -0.1225         estimate D2E/DX2                !
 ! D106  D(24,15,25,40)       -179.7928         estimate D2E/DX2                !
 ! D107  D(61,15,25,39)       -178.6501         estimate D2E/DX2                !
 ! D108  D(61,15,25,40)          1.6795         estimate D2E/DX2                !
 ! D109  D(24,15,61,11)          0.509          estimate D2E/DX2                !
 ! D110  D(24,15,61,12)        -97.6316         estimate D2E/DX2                !
 ! D111  D(24,15,61,13)         86.7724         estimate D2E/DX2                !
 ! D112  D(24,15,61,14)       -174.7444         estimate D2E/DX2                !
 ! D113  D(25,15,61,11)        179.0637         estimate D2E/DX2                !
 ! D114  D(25,15,61,12)         80.9231         estimate D2E/DX2                !
 ! D115  D(25,15,61,13)        -94.6729         estimate D2E/DX2                !
 ! D116  D(25,15,61,14)          3.8103         estimate D2E/DX2                !
 ! D117  D(2,16,26,41)        -179.8345         estimate D2E/DX2                !
 ! D118  D(2,16,26,42)           0.2828         estimate D2E/DX2                !
 ! D119  D(13,16,26,41)         -0.0933         estimate D2E/DX2                !
 ! D120  D(13,16,26,42)       -179.976          estimate D2E/DX2                !
 ! D121  D(11,17,24,15)          1.7879         estimate D2E/DX2                !
 ! D122  D(11,17,24,38)       -178.3737         estimate D2E/DX2                !
 ! D123  D(27,17,24,15)       -178.3736         estimate D2E/DX2                !
 ! D124  D(27,17,24,38)          1.4648         estimate D2E/DX2                !
 ! D125  D(11,17,27,43)         -0.086          estimate D2E/DX2                !
 ! D126  D(11,17,27,44)       -179.9481         estimate D2E/DX2                !
 ! D127  D(24,17,27,43)       -179.9147         estimate D2E/DX2                !
 ! D128  D(24,17,27,44)          0.2231         estimate D2E/DX2                !
 ! D129  D(11,18,28,43)          0.0673         estimate D2E/DX2                !
 ! D130  D(11,18,28,45)       -179.9692         estimate D2E/DX2                !
 ! D131  D(29,18,28,43)        179.7191         estimate D2E/DX2                !
 ! D132  D(29,18,28,45)         -0.3174         estimate D2E/DX2                !
 ! D133  D(12,19,22,14)          1.4939         estimate D2E/DX2                !
 ! D134  D(12,19,22,35)       -178.6796         estimate D2E/DX2                !
 ! D135  D(30,19,22,14)       -178.7501         estimate D2E/DX2                !
 ! D136  D(30,19,22,35)          1.0763         estimate D2E/DX2                !
 ! D137  D(12,19,30,46)         -0.0933         estimate D2E/DX2                !
 ! D138  D(12,19,30,47)       -179.976          estimate D2E/DX2                !
 ! D139  D(22,19,30,46)       -179.8345         estimate D2E/DX2                !
 ! D140  D(22,19,30,47)          0.2828         estimate D2E/DX2                !
 ! D141  D(12,20,31,46)          0.1049         estimate D2E/DX2                !
 ! D142  D(12,20,31,48)       -179.9249         estimate D2E/DX2                !
 ! D143  D(32,20,31,46)        179.7477         estimate D2E/DX2                !
 ! D144  D(32,20,31,48)         -0.282          estimate D2E/DX2                !
 ! D145  D(13,21,33,41)          0.1049         estimate D2E/DX2                !
 ! D146  D(13,21,33,49)       -179.9248         estimate D2E/DX2                !
 ! D147  D(34,21,33,41)        179.7477         estimate D2E/DX2                !
 ! D148  D(34,21,33,49)         -0.2821         estimate D2E/DX2                !
 ! D149  D(14,22,35,50)         -0.1141         estimate D2E/DX2                !
 ! D150  D(14,22,35,51)       -179.9958         estimate D2E/DX2                !
 ! D151  D(19,22,35,50)       -179.9299         estimate D2E/DX2                !
 ! D152  D(19,22,35,51)          0.1883         estimate D2E/DX2                !
 ! D153  D(14,23,36,50)          0.0724         estimate D2E/DX2                !
 ! D154  D(14,23,36,52)       -179.9425         estimate D2E/DX2                !
 ! D155  D(37,23,36,50)        179.681          estimate D2E/DX2                !
 ! D156  D(37,23,36,52)         -0.3339         estimate D2E/DX2                !
 ! D157  D(15,24,38,53)         -0.0861         estimate D2E/DX2                !
 ! D158  D(15,24,38,54)       -179.9482         estimate D2E/DX2                !
 ! D159  D(17,24,38,53)       -179.9147         estimate D2E/DX2                !
 ! D160  D(17,24,38,54)          0.2232         estimate D2E/DX2                !
 ! D161  D(15,25,39,53)          0.0673         estimate D2E/DX2                !
 ! D162  D(15,25,39,55)       -179.9692         estimate D2E/DX2                !
 ! D163  D(40,25,39,53)        179.7192         estimate D2E/DX2                !
 ! D164  D(40,25,39,55)         -0.3174         estimate D2E/DX2                !
 ! D165  D(16,26,41,33)          0.0125         estimate D2E/DX2                !
 ! D166  D(16,26,41,56)       -179.9672         estimate D2E/DX2                !
 ! D167  D(42,26,41,33)        179.8954         estimate D2E/DX2                !
 ! D168  D(42,26,41,56)         -0.0844         estimate D2E/DX2                !
 ! D169  D(17,27,43,28)          0.0286         estimate D2E/DX2                !
 ! D170  D(17,27,43,57)       -179.9338         estimate D2E/DX2                !
 ! D171  D(44,27,43,28)        179.891          estimate D2E/DX2                !
 ! D172  D(44,27,43,57)         -0.0714         estimate D2E/DX2                !
 ! D173  D(18,28,43,27)         -0.0186         estimate D2E/DX2                !
 ! D174  D(18,28,43,57)        179.9436         estimate D2E/DX2                !
 ! D175  D(45,28,43,27)       -179.9813         estimate D2E/DX2                !
 ! D176  D(45,28,43,57)         -0.0191         estimate D2E/DX2                !
 ! D177  D(19,30,46,31)          0.0125         estimate D2E/DX2                !
 ! D178  D(19,30,46,58)       -179.9672         estimate D2E/DX2                !
 ! D179  D(47,30,46,31)        179.8954         estimate D2E/DX2                !
 ! D180  D(47,30,46,58)         -0.0844         estimate D2E/DX2                !
 ! D181  D(20,31,46,30)         -0.0167         estimate D2E/DX2                !
 ! D182  D(20,31,46,58)        179.9629         estimate D2E/DX2                !
 ! D183  D(48,31,46,30)       -179.9863         estimate D2E/DX2                !
 ! D184  D(48,31,46,58)         -0.0067         estimate D2E/DX2                !
 ! D185  D(21,33,41,26)         -0.0168         estimate D2E/DX2                !
 ! D186  D(21,33,41,56)        179.9629         estimate D2E/DX2                !
 ! D187  D(49,33,41,26)       -179.9863         estimate D2E/DX2                !
 ! D188  D(49,33,41,56)         -0.0067         estimate D2E/DX2                !
 ! D189  D(22,35,50,36)          0.0226         estimate D2E/DX2                !
 ! D190  D(22,35,50,59)       -179.9651         estimate D2E/DX2                !
 ! D191  D(51,35,50,36)        179.9045         estimate D2E/DX2                !
 ! D192  D(51,35,50,59)         -0.0832         estimate D2E/DX2                !
 ! D193  D(23,36,50,35)         -0.0014         estimate D2E/DX2                !
 ! D194  D(23,36,50,59)        179.9863         estimate D2E/DX2                !
 ! D195  D(52,36,50,35)       -179.9861         estimate D2E/DX2                !
 ! D196  D(52,36,50,59)          0.0016         estimate D2E/DX2                !
 ! D197  D(24,38,53,39)          0.0287         estimate D2E/DX2                !
 ! D198  D(24,38,53,60)       -179.9338         estimate D2E/DX2                !
 ! D199  D(54,38,53,39)        179.891          estimate D2E/DX2                !
 ! D200  D(54,38,53,60)         -0.0714         estimate D2E/DX2                !
 ! D201  D(25,39,53,38)         -0.0186         estimate D2E/DX2                !
 ! D202  D(25,39,53,60)        179.9436         estimate D2E/DX2                !
 ! D203  D(55,39,53,38)       -179.9812         estimate D2E/DX2                !
 ! D204  D(55,39,53,60)         -0.019          estimate D2E/DX2                !
 --------------------------------------------------------------------------------
 Trust Radius=3.00D-01 FncErr=5.00D-06 GrdErr=5.00D-06 EigMax=2.50D+02 EigMin=1.00D-04
 Number of steps in this run=    366 maximum allowed number of steps=    366.
 GradGradGradGradGradGradGradGradGradGradGradGradGradGradGradGradGradGrad

 Leave Link  103 at Mon Oct 21 18:58:07 2024, MaxMem=  6442450944 cpu:               0.2 elap:               0.0
 (Enter /usr/local/apps/g16.a03/g16/l202.exe)
 Symmetry turned off by external request.
 Stoichiometry    C30H24N6Os
                          Input orientation:                          
 ---------------------------------------------------------------------
 Center     Atomic      Atomic             Coordinates (Angstroms)
 Number     Number       Type             X           Y           Z
 ---------------------------------------------------------------------
      1          7           0        1.500085    1.012170   -1.039668
      2          6           0        1.825690    2.259365   -0.580628
      3          6           0        2.828460    3.014052   -1.191894
      4          6           0        3.514338    2.497361   -2.283775
      5          6           0        3.179173    1.225284   -2.745520
      6          6           0        2.175176    0.518651   -2.102264
      7          1           0        3.073032    3.998785   -0.815540
      8          1           0        4.294266    3.076104   -2.763647
      9          1           0        3.683864    0.777746   -3.592562
     10          1           0        1.880163   -0.468600   -2.430570
     11          7           0       -1.628219    0.794235   -1.036800
     12          7           0        0.128272   -1.806990   -1.036836
     13          7           0        0.128272    1.806989    1.036836
     14          7           0        1.500085   -1.012170    1.039668
     15          7           0       -1.628219   -0.794234    1.036800
     16          6           0        1.043522    2.712374    0.573272
     17          6           0       -2.870609    0.454281   -0.575133
     18          6           0       -1.539229    1.629010   -2.096744
     19          6           0        1.043521   -2.712374   -0.573271
     20          6           0       -0.634144   -2.146574   -2.100640
     21          6           0       -0.634144    2.146574    2.100640
     22          6           0        1.825690   -2.259366    0.580629
     23          6           0        2.175176   -0.518652    2.102264
     24          6           0       -2.870609   -0.454281    0.575133
     25          6           0       -1.539229   -1.629009    2.096744
     26          6           0        1.195987    3.959583    1.181253
     27          6           0       -4.025883    0.951490   -1.180787
     28          6           0       -2.653593    2.151069   -2.734528
     29          1           0       -0.536874    1.865174   -2.426613
     30          6           0        1.195986   -3.959584   -1.181253
     31          6           0       -0.523313   -3.370834   -2.741114
     32          1           0       -1.340728   -1.398060   -2.432111
     33          6           0       -0.523312    3.370834    2.741114
     34          1           0       -1.340727    1.398060    2.432111
     35          6           0        2.828460   -3.014053    1.191894
     36          6           0        3.179173   -1.225285    2.745521
     37          1           0        1.880163    0.468599    2.430570
     38          6           0       -4.025884   -0.951489    1.180787
     39          6           0       -2.653594   -2.151068    2.734528
     40          1           0       -0.536875   -1.865174    2.426613
     41          6           0        0.408491    4.297008    2.274646
     42          1           0        1.924567    4.663462    0.801067
     43          6           0       -3.922318    1.807641   -2.269728
     44          1           0       -5.000746    0.673208   -0.802488
     45          1           0       -2.519223    2.814794   -3.579468
     46          6           0        0.408490   -4.297008   -2.274646
     47          1           0        1.924566   -4.663463   -0.801067
     48          1           0       -1.160913   -3.585615   -3.589565
     49          1           0       -1.160912    3.585615    3.589565
     50          6           0        3.514338   -2.497362    2.283775
     51          1           0        3.073031   -3.998785    0.815540
     52          1           0        3.683864   -0.777747    3.592562
     53          6           0       -3.922318   -1.807640    2.269728
     54          1           0       -5.000747   -0.673207    0.802488
     55          1           0       -2.519224   -2.814794    3.579468
     56          1           0        0.520357    5.263141    2.751733
     57          1           0       -4.814015    2.198651   -2.744644
     58          1           0        0.520356   -5.263141   -2.751733
     59          1           0        4.294266   -3.076105    2.763647
     60          1           0       -4.814015   -2.198650    2.744644
     61         76           0        0.000000    0.000000    0.000000
 ---------------------------------------------------------------------
 Rotational constants (GHZ):           0.1217712           0.1216117           0.0993647
 Leave Link  202 at Mon Oct 21 18:58:07 2024, MaxMem=  6442450944 cpu:               0.1 elap:               0.0
 (Enter /usr/local/apps/g16.a03/g16/l301.exe)
 General basis read from cards:  (5D, 7F)
 Centers:       2      3      4      5      6     16     17     18     19     20
 Centers:      21     22     23     24     25     26     27     28     30     31
 Centers:      33     35     36     38     39     41     43     46     50     53
 Centers:       7      8      9     10     29     32     34     37     40     42
 Centers:      44     45     47     48     49     51     52     54     55     56
 Centers:      57     58     59     60      1     11     12     13     14     15
 6-311G*
 ****
 Centers:      61
 SDD
 ****
 ======================================================================================================
                                       Pseudopotential Parameters
 ======================================================================================================
  Center     Atomic      Valence      Angular      Power
  Number     Number     Electrons     Momentum     of R      Exponent        Coefficient   SO-Coeffient
 ======================================================================================================
    1          7
                                   No pseudopotential on this center.
    2          6
                                   No pseudopotential on this center.
    3          6
                                   No pseudopotential on this center.
    4          6
                                   No pseudopotential on this center.
    5          6
                                   No pseudopotential on this center.
    6          6
                                   No pseudopotential on this center.
    7          1
                                   No pseudopotential on this center.
    8          1
                                   No pseudopotential on this center.
    9          1
                                   No pseudopotential on this center.
   10          1
                                   No pseudopotential on this center.
   11          7
                                   No pseudopotential on this center.
   12          7
                                   No pseudopotential on this center.
   13          7
                                   No pseudopotential on this center.
   14          7
                                   No pseudopotential on this center.
   15          7
                                   No pseudopotential on this center.
   16          6
                                   No pseudopotential on this center.
   17          6
                                   No pseudopotential on this center.
   18          6
                                   No pseudopotential on this center.
   19          6
                                   No pseudopotential on this center.
   20          6
                                   No pseudopotential on this center.
   21          6
                                   No pseudopotential on this center.
   22          6
                                   No pseudopotential on this center.
   23          6
                                   No pseudopotential on this center.
   24          6
                                   No pseudopotential on this center.
   25          6
                                   No pseudopotential on this center.
   26          6
                                   No pseudopotential on this center.
   27          6
                                   No pseudopotential on this center.
   28          6
                                   No pseudopotential on this center.
   29          1
                                   No pseudopotential on this center.
   30          6
                                   No pseudopotential on this center.
   31          6
                                   No pseudopotential on this center.
   32          1
                                   No pseudopotential on this center.
   33          6
                                   No pseudopotential on this center.
   34          1
                                   No pseudopotential on this center.
   35          6
                                   No pseudopotential on this center.
   36          6
                                   No pseudopotential on this center.
   37          1
                                   No pseudopotential on this center.
   38          6
                                   No pseudopotential on this center.
   39          6
                                   No pseudopotential on this center.
   40          1
                                   No pseudopotential on this center.
   41          6
                                   No pseudopotential on this center.
   42          1
                                   No pseudopotential on this center.
   43          6
                                   No pseudopotential on this center.
   44          1
                                   No pseudopotential on this center.
   45          1
                                   No pseudopotential on this center.
   46          6
                                   No pseudopotential on this center.
   47          1
                                   No pseudopotential on this center.
   48          1
                                   No pseudopotential on this center.
   49          1
                                   No pseudopotential on this center.
   50          6
                                   No pseudopotential on this center.
   51          1
                                   No pseudopotential on this center.
   52          1
                                   No pseudopotential on this center.
   53          6
                                   No pseudopotential on this center.
   54          1
                                   No pseudopotential on this center.
   55          1
                                   No pseudopotential on this center.
   56          1
                                   No pseudopotential on this center.
   57          1
                                   No pseudopotential on this center.
   58          1
                                   No pseudopotential on this center.
   59          1
                                   No pseudopotential on this center.
   60          1
                                   No pseudopotential on this center.
   61         76           16
                                      H and up 
                                                     2        1.0000000        0.00000000    0.00000000
                                      S - H
                                                     2       13.8757540      885.40571900    0.00000000
                                                     2        6.9378770       25.96704000    0.00000000
                                      P - H
                                                     2       10.1937930      320.08390200    0.00000000
                                                     2        5.0968960       26.14876500    0.00000000
                                      D - H
                                                     2        7.0992380      115.04484300    0.00000000
                                                     2        3.5496190       13.62257500    0.00000000
                                      F - H
                                                     2        2.7670750       18.90945700    0.00000000
                                      G - H
                                                     2        4.3499050      -19.02759500    0.00000000
 ======================================================================================================
 Ernie: Thresh=  0.10000D-02 Tol=  0.10000D-05 Strict=F.
   756 basis functions,  1337 primitive gaussians,   795 cartesian basis functions
   130 alpha electrons      130 beta electrons
       nuclear repulsion energy      4382.6251982603 Hartrees.
 IExCor= 2523 DFT=T Ex+Corr=TPSSh ExCW=0 ScaHFX=  0.100000
 ScaDFX=  0.900000  0.900000  1.000000  1.000000 ScalE2=  1.000000  1.000000
 IRadAn=      5 IRanWt=     -1 IRanGd=            0 ICorTp=0 IEmpDi=  4
 NAtoms=   61 NActive=   61 NUniq=   61 SFac= 1.00D+00 NAtFMM=   60 NAOKFM=T Big=T
 Integral buffers will be    131072 words long.
 Regular integral format.
 Two-electron integral symmetry is turned off.
 ------------------------------------------------------------------------------
 Polarizable Continuum Model (PCM)
 =================================
 Model                : PCM.
 Atomic radii         : UFF (Universal Force Field).
 Polarization charges : Total charges.
 Charge compensation  : None.
 Solution method      : On-the-fly selection.
 Cavity type          : Scaled VdW (van der Waals Surface) (Alpha=1.100).
 Cavity algorithm     : GePol (No added spheres)
                        Default sphere list used, NSphG=   61.
                        Lebedev-Laikov grids with approx.  5.0 points / Ang**2.
                        Smoothing algorithm: York/Karplus (Gamma=1.0000).
                        Polarization charges: spherical gaussians, with
                                              point-specific exponents (IZeta= 3).
                        Self-potential: point-specific (ISelfS= 7).
                        Self-field    : sphere-specific E.n sum rule (ISelfD= 2).
 1st derivatives      : Analytical E(r).r(x)/FMM algorithm (CHGder, D1EAlg=3).
                        Cavity 1st derivative terms included.
 Solvent              : Acetonitrile, Eps=  35.688000 Eps(inf)=   1.806874
 ------------------------------------------------------------------------------
 GePol: Number of generator spheres                  =      61
 GePol: Total number of spheres                      =      61
 GePol: Number of exposed spheres                    =      61 (100.00%)
 GePol: Number of points                             =    4134
 GePol: Average weight of points                     =       0.13
 GePol: Minimum weight of points                     =   0.60D-10
 GePol: Maximum weight of points                     =    0.20577
 GePol: Number of points with low weight             =     282
 GePol: Fraction of low-weight points (<1% of avg)   =       6.82%
 GePol: Cavity surface area                          =    531.090 Ang**2
 GePol: Cavity volume                                =    647.445 Ang**3
 Leave Link  301 at Mon Oct 21 18:58:07 2024, MaxMem=  6442450944 cpu:               1.2 elap:               0.1
 (Enter /usr/local/apps/g16.a03/g16/l302.exe)
 NPDir=0 NMtPBC=     1 NCelOv=     1 NCel=       1 NClECP=     1 NCelD=      1
         NCelK=      1 NCelE2=     1 NClLst=     1 CellRange=     0.0.
 One-electron integrals computed using PRISM.
   1 Symmetry operations used in ECPInt.
 ECPInt:  NShTT=   35511 NPrTT=  165182 LenC2=   29702 LenP2D=   77505.
 LDataN:  DoStor=T MaxTD1= 7 Len=  274
 NBasis=   756 RedAO= T EigKep=  2.11D-04  NBF=   756
 NBsUse=   756 1.00D-06 EigRej= -1.00D+00 NBFU=   756
 Precomputing XC quadrature grid using
 IXCGrd= 4 IRadAn=           5 IRanWt=          -1 IRanGd=           0 AccXCQ= 0.00D+00.
 Defaulting to unpruned grid for atomic number  76.
 Generated NRdTot=       0 NPtTot=           0 NUsed=           0 NTot=          32
 NSgBfM=   791   791   791   791   791 MxSgAt=    61 MxSgA2=    61.
 Leave Link  302 at Mon Oct 21 18:58:08 2024, MaxMem=  6442450944 cpu:              25.0 elap:               1.6
 (Enter /usr/local/apps/g16.a03/g16/l303.exe)
 DipDrv:  MaxL=1.
 Leave Link  303 at Mon Oct 21 18:58:09 2024, MaxMem=  6442450944 cpu:               1.9 elap:               0.2
 (Enter /usr/local/apps/g16.a03/g16/l308.exe)
 Leave Link  308 at Mon Oct 21 18:58:09 2024, MaxMem=  6442450944 cpu:               2.9 elap:               0.2
 (Enter /usr/local/apps/g16.a03/g16/l401.exe)
 ExpMin= 1.50D-02 ExpMax= 6.29D+03 ExpMxC= 9.49D+02 IAcc=3 IRadAn=         5 AccDes= 0.00D+00
 Harris functional with IExCor= 1009 and IRadAn=       5 diagonalized for initial guess.
 HarFok:  IExCor= 1009 AccDes= 0.00D+00 IRadAn=         5 IDoV= 1 UseB2=F ITyADJ=14
 ICtDFT=  3500011 ScaDFX=  1.000000  1.000000  1.000000  1.000000
 Defaulting to unpruned grid for atomic number  76.
 FoFCou: FMM=F IPFlag=           0 FMFlag=      100000 FMFlg1=        2001
         NFxFlg=           0 DoJE=T BraDBF=F KetDBF=T FulRan=T
         wScrn=  0.000000 ICntrl=       500 IOpCl=  0 I1Cent=   200000004 NGrid=           0
         NMat0=    1 NMatS0=      1 NMatT0=    0 NMatD0=    1 NMtDS0=    0 NMtDT0=    0
 Symmetry not used in FoFCou.
 Harris En= -1575.57636516503    
 JPrj=0 DoOrth=F DoCkMO=F.
 Leave Link  401 at Mon Oct 21 18:58:16 2024, MaxMem=  6442450944 cpu:             109.5 elap:               6.9
 (Enter /usr/local/apps/g16.a03/g16/l502.exe)
 Two-electron integral symmetry not used.
 Closed shell SCF:
 Using DIIS extrapolation, IDIIS=  1040.
 NGot=  6442450944 LenX=  6441167892 LenY=  6440535072
 Requested convergence on RMS density matrix=1.00D-08 within  32 cycles.
 Requested convergence on MAX density matrix=1.00D-06.
 Requested convergence on             energy=1.00D-06.
 No special actions if energy rises.
 Fock matrices will be formed incrementally for  20 cycles.

 Cycle   1  Pass 1  IDiag  1:
 FoFJK:  IHMeth= 1 ICntrl=       0 DoSepK=F KAlg= 0 I1Cent=           0 FoldK=F
 IRaf= 930000000 NMat=       1 IRICut=       1 DoRegI=T DoRafI=F ISym2E= 0 IDoP0=0 IntGTp=1.
 FoFCou: FMM=T IPFlag=           0 FMFlag=      100000 FMFlg1=        2001
         NFxFlg=           0 DoJE=F BraDBF=F KetDBF=F FulRan=T
         wScrn=  0.000000 ICntrl=         0 IOpCl=  0 I1Cent=           0 NGrid=           0
         NMat0=    1 NMatS0=      1 NMatT0=    0 NMatD0=    1 NMtDS0=    0 NMtDT0=    0
 Symmetry not used in FoFCou.
 FMM levels:  10  Number of levels for PrismC:   9
 Defaulting to unpruned grid for atomic number  76.
 Defaulting to unpruned grid for atomic number  76.
 Defaulting to unpruned grid for atomic number  76.
 Defaulting to unpruned grid for atomic number  76.
 Defaulting to unpruned grid for atomic number  76.
 Defaulting to unpruned grid for atomic number  76.
 Defaulting to unpruned grid for atomic number  76.
 Defaulting to unpruned grid for atomic number  76.
 Defaulting to unpruned grid for atomic number  76.
 Defaulting to unpruned grid for atomic number  76.
 Defaulting to unpruned grid for atomic number  76.
 Defaulting to unpruned grid for atomic number  76.
 Defaulting to unpruned grid for atomic number  76.
 Defaulting to unpruned grid for atomic number  76.
 Defaulting to unpruned grid for atomic number  76.
 Defaulting to unpruned grid for atomic number  76.
 Inv3:  Mode=1 IEnd=    51269868.
 Iteration    1 A*A^-1 deviation from unit magnitude is 8.66D-15 for   4133.
 Iteration    1 A*A^-1 deviation from orthogonality  is 3.47D-15 for   4133   4130.
 Iteration    1 A^-1*A deviation from unit magnitude is 8.66D-15 for   4133.
 Iteration    1 A^-1*A deviation from orthogonality  is 2.22D-15 for   2818    757.
 E= -1575.66496123673    
 DIIS: error= 5.81D-02 at cycle   1 NSaved=   1.
 NSaved= 1 IEnMin= 1 EnMin= -1575.66496123673     IErMin= 1 ErrMin= 5.81D-02
 ErrMax= 5.81D-02  0.00D+00 EMaxC= 1.00D-01 BMatC= 1.68D+00 BMatP= 1.68D+00
 IDIUse=3 WtCom= 4.19D-01 WtEn= 5.81D-01
 Coeff-Com:  0.100D+01
 Coeff-En:   0.100D+01
 Coeff:      0.100D+01
 Gap=     0.508 Goal=   None    Shift=    0.000
 GapD=    0.508 DampG=2.000 DampE=0.250 DampFc=0.5000 IDamp=-1.
 Damping current iteration by 5.00D-01
 RMSDP=8.34D-03 MaxDP=1.41D+00              OVMax= 6.68D-01

 Cycle   2  Pass 1  IDiag  1:
 RMSU=  4.14D-03    CP:  1.07D+00
 E= -1574.40366647808     Delta-E=        1.261294758648 Rises=F Damp=T
 DIIS: error= 4.14D-02 at cycle   2 NSaved=   2.
 NSaved= 2 IEnMin= 1 EnMin= -1575.66496123673     IErMin= 2 ErrMin= 4.14D-02
 ErrMax= 4.14D-02  0.00D+00 EMaxC= 1.00D-01 BMatC= 1.36D+00 BMatP= 1.68D+00
 IDIUse=3 WtCom= 5.86D-01 WtEn= 4.14D-01
 Coeff-Com:  0.466D+00 0.534D+00
 Coeff-En:   0.648D+00 0.352D+00
 Coeff:      0.541D+00 0.459D+00
 Gap=     0.002 Goal=   None    Shift=    0.000
 RMSDP=4.25D-03 MaxDP=6.40D-01 DE= 1.26D+00 OVMax= 9.43D-01

 Cycle   3  Pass 1  IDiag  1:
 RMSU=  1.75D-03    CP:  9.79D-01  7.85D-02
 E= -1576.77604326660     Delta-E=       -2.372376788526 Rises=F Damp=F
 DIIS: error= 2.87D-02 at cycle   3 NSaved=   3.
 NSaved= 3 IEnMin= 3 EnMin= -1576.77604326660     IErMin= 3 ErrMin= 2.87D-02
 ErrMax= 2.87D-02  0.00D+00 EMaxC= 1.00D-01 BMatC= 4.24D-01 BMatP= 1.36D+00
 IDIUse=3 WtCom= 7.13D-01 WtEn= 2.87D-01
 Coeff-Com:  0.279D+00 0.245D+00 0.476D+00
 Coeff-En:   0.186D+00 0.000D+00 0.814D+00
 Coeff:      0.253D+00 0.175D+00 0.573D+00
 Gap=     0.083 Goal=   None    Shift=    0.000
 RMSDP=1.15D-03 MaxDP=1.23D-01 DE=-2.37D+00 OVMax= 1.33D-01

 Cycle   4  Pass 1  IDiag  1:
 RMSU=  8.70D-04    CP:  9.91D-01  8.58D-02  5.76D-01
 E= -1576.90750366320     Delta-E=       -0.131460396600 Rises=F Damp=F
 DIIS: error= 2.35D-02 at cycle   4 NSaved=   4.
 NSaved= 4 IEnMin= 4 EnMin= -1576.90750366320     IErMin= 4 ErrMin= 2.35D-02
 ErrMax= 2.35D-02  0.00D+00 EMaxC= 1.00D-01 BMatC= 2.85D-01 BMatP= 4.24D-01
 IDIUse=3 WtCom= 7.65D-01 WtEn= 2.35D-01
 Coeff-Com:  0.866D-01 0.272D-01 0.433D+00 0.453D+00
 Coeff-En:   0.000D+00 0.000D+00 0.417D+00 0.583D+00
 Coeff:      0.663D-01 0.208D-01 0.429D+00 0.484D+00
 Gap=     0.094 Goal=   None    Shift=    0.000
 RMSDP=5.63D-04 MaxDP=5.85D-02 DE=-1.31D-01 OVMax= 1.10D-01

 Cycle   5  Pass 1  IDiag  1:
 RMSU=  2.42D-04    CP:  9.92D-01  7.78D-02  7.19D-01  4.92D-01
 E= -1577.14182850007     Delta-E=       -0.234324836866 Rises=F Damp=F
 DIIS: error= 5.22D-03 at cycle   5 NSaved=   5.
 NSaved= 5 IEnMin= 5 EnMin= -1577.14182850007     IErMin= 5 ErrMin= 5.22D-03
 ErrMax= 5.22D-03  0.00D+00 EMaxC= 1.00D-01 BMatC= 1.26D-02 BMatP= 2.85D-01
 IDIUse=3 WtCom= 9.48D-01 WtEn= 5.22D-02
 Coeff-Com:  0.164D-01-0.488D-02 0.193D+00 0.271D+00 0.525D+00
 Coeff-En:   0.000D+00 0.000D+00 0.000D+00 0.000D+00 0.100D+01
 Coeff:      0.156D-01-0.462D-02 0.183D+00 0.256D+00 0.550D+00
 Gap=     0.091 Goal=   None    Shift=    0.000
 RMSDP=1.56D-04 MaxDP=1.11D-02 DE=-2.34D-01 OVMax= 2.73D-02

 Cycle   6  Pass 1  IDiag  1:
 RMSU=  8.21D-05    CP:  9.90D-01  7.64D-02  7.23D-01  5.82D-01  5.67D-01
 E= -1577.15235404161     Delta-E=       -0.010525541537 Rises=F Damp=F
 DIIS: error= 2.81D-03 at cycle   6 NSaved=   6.
 NSaved= 6 IEnMin= 6 EnMin= -1577.15235404161     IErMin= 6 ErrMin= 2.81D-03
 ErrMax= 2.81D-03  0.00D+00 EMaxC= 1.00D-01 BMatC= 2.21D-03 BMatP= 1.26D-02
 IDIUse=3 WtCom= 9.72D-01 WtEn= 2.81D-02
 Coeff-Com:  0.229D-02-0.795D-02 0.654D-01 0.984D-01 0.336D+00 0.506D+00
 Coeff-En:   0.000D+00 0.000D+00 0.000D+00 0.000D+00 0.175D+00 0.825D+00
 Coeff:      0.223D-02-0.772D-02 0.636D-01 0.956D-01 0.332D+00 0.514D+00
 Gap=     0.091 Goal=   None    Shift=    0.000
 RMSDP=6.49D-05 MaxDP=2.72D-03 DE=-1.05D-02 OVMax= 1.21D-02

 Cycle   7  Pass 1  IDiag  1:
 RMSU=  3.50D-05    CP:  9.89D-01  7.38D-02  7.31D-01  5.50D-01  6.44D-01
                    CP:  5.30D-01
 E= -1577.15467792598     Delta-E=       -0.002323884368 Rises=F Damp=F
 DIIS: error= 6.17D-04 at cycle   7 NSaved=   7.
 NSaved= 7 IEnMin= 7 EnMin= -1577.15467792598     IErMin= 7 ErrMin= 6.17D-04
 ErrMax= 6.17D-04  0.00D+00 EMaxC= 1.00D-01 BMatC= 1.49D-04 BMatP= 2.21D-03
 IDIUse=3 WtCom= 9.94D-01 WtEn= 6.17D-03
 Coeff-Com:  0.139D-02-0.398D-02 0.144D-01 0.199D-01 0.993D-01 0.272D+00
 Coeff-Com:  0.597D+00
 Coeff-En:   0.000D+00 0.000D+00 0.000D+00 0.000D+00 0.000D+00 0.000D+00
 Coeff-En:   0.100D+01
 Coeff:      0.138D-02-0.395D-02 0.143D-01 0.198D-01 0.987D-01 0.270D+00
 Coeff:      0.600D+00
 Gap=     0.091 Goal=   None    Shift=    0.000
 RMSDP=1.81D-05 MaxDP=7.88D-04 DE=-2.32D-03 OVMax= 2.99D-03

 Cycle   8  Pass 1  IDiag  1:
 RMSU=  1.15D-05    CP:  9.89D-01  7.40D-02  7.31D-01  5.55D-01  6.48D-01
                    CP:  6.13D-01  6.80D-01
 E= -1577.15479943931     Delta-E=       -0.000121513331 Rises=F Damp=F
 DIIS: error= 2.55D-04 at cycle   8 NSaved=   8.
 NSaved= 8 IEnMin= 8 EnMin= -1577.15479943931     IErMin= 8 ErrMin= 2.55D-04
 ErrMax= 2.55D-04  0.00D+00 EMaxC= 1.00D-01 BMatC= 3.53D-05 BMatP= 1.49D-04
 IDIUse=3 WtCom= 9.97D-01 WtEn= 2.55D-03
 Coeff-Com:  0.156D-02-0.227D-02 0.563D-03-0.104D-02 0.106D-01 0.992D-01
 Coeff-Com:  0.359D+00 0.532D+00
 Coeff-En:   0.000D+00 0.000D+00 0.000D+00 0.000D+00 0.000D+00 0.000D+00
 Coeff-En:   0.903D-01 0.910D+00
 Coeff:      0.156D-02-0.226D-02 0.562D-03-0.104D-02 0.106D-01 0.989D-01
 Coeff:      0.358D+00 0.533D+00
 Gap=     0.091 Goal=   None    Shift=    0.000
 RMSDP=6.71D-06 MaxDP=3.37D-04 DE=-1.22D-04 OVMax= 1.27D-03

 Cycle   9  Pass 1  IDiag  1:
 RMSU=  4.21D-06    CP:  9.89D-01  7.37D-02  7.31D-01  5.54D-01  6.45D-01
                    CP:  6.15D-01  7.60D-01  6.43D-01
 E= -1577.15482668579     Delta-E=       -0.000027246484 Rises=F Damp=F
 DIIS: error= 1.19D-04 at cycle   9 NSaved=   9.
 NSaved= 9 IEnMin= 9 EnMin= -1577.15482668579     IErMin= 9 ErrMin= 1.19D-04
 ErrMax= 1.19D-04  0.00D+00 EMaxC= 1.00D-01 BMatC= 8.57D-06 BMatP= 3.53D-05
 IDIUse=3 WtCom= 9.99D-01 WtEn= 1.19D-03
 Coeff-Com:  0.130D-02-0.117D-02-0.295D-02-0.559D-02-0.195D-01 0.379D-02
 Coeff-Com:  0.107D+00 0.321D+00 0.597D+00
 Coeff-En:   0.000D+00 0.000D+00 0.000D+00 0.000D+00 0.000D+00 0.000D+00
 Coeff-En:   0.000D+00 0.000D+00 0.100D+01
 Coeff:      0.130D-02-0.117D-02-0.294D-02-0.558D-02-0.195D-01 0.378D-02
 Coeff:      0.107D+00 0.320D+00 0.597D+00
 Gap=     0.091 Goal=   None    Shift=    0.000
 RMSDP=3.45D-06 MaxDP=4.61D-04 DE=-2.72D-05 OVMax= 9.16D-04

 Cycle  10  Pass 1  IDiag  1:
 RMSU=  1.84D-06    CP:  9.89D-01  7.34D-02  7.30D-01  5.53D-01  6.41D-01
                    CP:  6.21D-01  7.73D-01  7.50D-01  6.37D-01
 E= -1577.15483545298     Delta-E=       -0.000008767187 Rises=F Damp=F
 DIIS: error= 1.83D-05 at cycle  10 NSaved=  10.
 NSaved=10 IEnMin=10 EnMin= -1577.15483545298     IErMin=10 ErrMin= 1.83D-05
 ErrMax= 1.83D-05  0.00D+00 EMaxC= 1.00D-01 BMatC= 2.49D-07 BMatP= 8.57D-06
 IDIUse=1 WtCom= 1.00D+00 WtEn= 0.00D+00
 Coeff-Com:  0.149D-03-0.812D-04-0.132D-03 0.509D-04-0.325D-02-0.880D-02
 Coeff-Com: -0.217D-01-0.382D-01 0.721D-01 0.100D+01
 Coeff:      0.149D-03-0.812D-04-0.132D-03 0.509D-04-0.325D-02-0.880D-02
 Coeff:     -0.217D-01-0.382D-01 0.721D-01 0.100D+01
 Gap=     0.091 Goal=   None    Shift=    0.000
 RMSDP=1.06D-06 MaxDP=9.38D-05 DE=-8.77D-06 OVMax= 2.22D-04

 Cycle  11  Pass 1  IDiag  1:
 RMSU=  5.68D-07    CP:  9.89D-01  7.32D-02  7.30D-01  5.53D-01  6.39D-01
                    CP:  6.20D-01  7.80D-01  7.60D-01  7.21D-01  1.10D+00
 E= -1577.15483566530     Delta-E=       -0.000000212327 Rises=F Damp=F
 DIIS: error= 8.04D-06 at cycle  11 NSaved=  11.
 NSaved=11 IEnMin=11 EnMin= -1577.15483566530     IErMin=11 ErrMin= 8.04D-06
 ErrMax= 8.04D-06  0.00D+00 EMaxC= 1.00D-01 BMatC= 3.79D-08 BMatP= 2.49D-07
 IDIUse=1 WtCom= 1.00D+00 WtEn= 0.00D+00
 Coeff-Com:  0.385D-04-0.160D-04 0.315D-04 0.213D-03-0.845D-03-0.354D-02
 Coeff-Com: -0.110D-01-0.230D-01 0.253D-01 0.509D+00 0.504D+00
 Coeff:      0.385D-04-0.160D-04 0.315D-04 0.213D-03-0.845D-03-0.354D-02
 Coeff:     -0.110D-01-0.230D-01 0.253D-01 0.509D+00 0.504D+00
 Gap=     0.091 Goal=   None    Shift=    0.000
 RMSDP=2.37D-07 MaxDP=1.46D-05 DE=-2.12D-07 OVMax= 4.02D-05

 Cycle  12  Pass 1  IDiag  1:
 RMSU=  1.61D-07    CP:  9.89D-01  7.33D-02  7.30D-01  5.53D-01  6.39D-01
                    CP:  6.20D-01  7.78D-01  7.57D-01  7.11D-01  1.10D+00
                    CP:  7.84D-01
 E= -1577.15483569759     Delta-E=       -0.000000032289 Rises=F Damp=F
 DIIS: error= 2.44D-06 at cycle  12 NSaved=  12.
 NSaved=12 IEnMin=12 EnMin= -1577.15483569759     IErMin=12 ErrMin= 2.44D-06
 ErrMax= 2.44D-06  0.00D+00 EMaxC= 1.00D-01 BMatC= 5.66D-09 BMatP= 3.79D-08
 IDIUse=1 WtCom= 1.00D+00 WtEn= 0.00D+00
 Coeff-Com:  0.393D-05-0.367D-06 0.334D-04 0.101D-03 0.321D-04-0.313D-03
 Coeff-Com: -0.146D-02-0.377D-02 0.102D-01 0.144D+00 0.259D+00 0.593D+00
 Coeff:      0.393D-05-0.367D-06 0.334D-04 0.101D-03 0.321D-04-0.313D-03
 Coeff:     -0.146D-02-0.377D-02 0.102D-01 0.144D+00 0.259D+00 0.593D+00
 Gap=     0.091 Goal=   None    Shift=    0.000
 RMSDP=1.14D-07 MaxDP=7.60D-06 DE=-3.23D-08 OVMax= 1.30D-05

 Cycle  13  Pass 1  IDiag  1:
 RMSU=  4.76D-08    CP:  9.89D-01  7.33D-02  7.30D-01  5.53D-01  6.39D-01
                    CP:  6.20D-01  7.77D-01  7.54D-01  7.07D-01  1.09D+00
                    CP:  7.69D-01  6.51D-01
 E= -1577.15483570249     Delta-E=       -0.000000004899 Rises=F Damp=F
 DIIS: error= 8.23D-07 at cycle  13 NSaved=  13.
 NSaved=13 IEnMin=13 EnMin= -1577.15483570249     IErMin=13 ErrMin= 8.23D-07
 ErrMax= 8.23D-07  0.00D+00 EMaxC= 1.00D-01 BMatC= 5.54D-10 BMatP= 5.66D-09
 IDIUse=1 WtCom= 1.00D+00 WtEn= 0.00D+00
 Coeff-Com:  0.135D-05 0.145D-06 0.213D-04 0.571D-04 0.687D-04 0.923D-05
 Coeff-Com: -0.255D-03-0.980D-03 0.664D-02 0.731D-01 0.148D+00 0.379D+00
 Coeff-Com:  0.395D+00
 Coeff:      0.135D-05 0.145D-06 0.213D-04 0.571D-04 0.687D-04 0.923D-05
 Coeff:     -0.255D-03-0.980D-03 0.664D-02 0.731D-01 0.148D+00 0.379D+00
 Coeff:      0.395D+00
 Gap=     0.091 Goal=   None    Shift=    0.000
 RMSDP=3.47D-08 MaxDP=2.21D-06 DE=-4.90D-09 OVMax= 4.59D-06

 Cycle  14  Pass 1  IDiag  1:
 RMSU=  2.09D-08    CP:  9.89D-01  7.33D-02  7.30D-01  5.53D-01  6.39D-01
[...]
 400,0.00000402,0.00003298,-0.00001038,-0.00000622,0.00000092,-0.000002
 49,0.00000345,0.00000130,-0.20880569,0.11286761,-0.10098341,-0.0012937
 9,-0.00132651,0.00218844,-0.00130271,-0.00108191,0.00191099,-0.0000104
 3,0.00000218,-0.00000338,-0.00000188,0.00000042,0.,-0.00000137,-0.0000
 0128,0.00000216,0.00000035,0.00000231,0.00000108,-0.00000138,0.0000012
 8,-0.00000004,-0.00000432,-0.00000887,-0.00001358,0.21121571,0.0000014
 3,0.00001276,0.00003863,0.00001783,-0.00000627,-0.00004863,-0.00001264
 ,0.00000811,0.00001475,-0.00000128,-0.00002925,-0.00001584,0.00000340,
 0.00003951,0.00001146,-0.00000178,-0.00002425,-0.00001030,-0.00000131,
 -0.00000345,-0.00000117,-0.00000210,-0.00000232,0.00000228,-0.00000101
 ,0.00000025,0.00000312,0.00000106,0.00000245,0.00000355,0.00005434,-0.
 00000321,-0.00000204,-0.00033996,-0.00009391,-0.00021407,0.00010459,-0
 .00014411,0.00003267,-0.00085991,-0.00063684,0.00022597,-0.00000050,0.
 00001833,-0.00000019,0.00006067,0.00006050,-0.00000670,-0.00000073,-0.
 00000617,0.00000663,0.00000575,0.00000870,0.00000327,-0.00042618,0.000
 61566,0.00004358,-0.00003600,0.00011107,0.00002685,-0.00009496,0.00006
 364,0.00008976,0.00017850,0.00058906,-0.00492867,0.00279096,-0.0037912
 3,-0.00466699,-0.00000869,0.00000499,-0.00000607,0.00000577,0.00000066
 ,0.00000451,0.00000228,-0.00000397,-0.00000178,0.00000586,-0.00000299,
 0.00000203,-0.00000423,0.00000110,0.00000371,-0.00000472,-0.00000065,-
 0.00000387,0.00004367,0.00001855,0.00001904,0.00001323,-0.00002019,0.0
 0000753,-0.00000963,-0.00000358,-0.00002371,-0.00001024,-0.00003543,-0
 .00003010,0.00000259,0.00000259,-0.00000038,-0.01094003,0.01128327,-0.
 00748398,0.02187012,-0.00870927,0.01363511,0.00083459,-0.00048429,0.00
 100188,0.00000256,0.00000432,-0.00000633,0.00000174,-0.00000089,0.0000
 0100,-0.00000980,-0.00000473,-0.00000154,0.00000950,0.00001953,-0.0000
 0222,-0.00000075,-0.00000577,0.00000193,0.00000243,0.00000239,-0.00000
 301,0.00000172,-0.00000067,0.00000008,0.00000094,-0.00000195,-0.000000
 22,0.00001703,-0.00002354,-0.00002280,-0.00000475,-0.00000799,0.000012
 64,-0.00000216,-0.00000359,0.00000227,0.00000266,-0.00000404,-0.000001
 30,0.11312908,-0.13280964,0.06015232,-0.00093253,-0.00011996,0.0016581
 3,-0.00159569,0.00053830,0.00107844,0.00000539,-0.00000081,0.00000056,
 0.00000132,-0.00000048,-0.00000004,0.00000040,0.00000086,-0.00000093,0
 .00000037,-0.00000444,-0.00000208,0.00000071,-0.00000036,0.00000040,-0
 .00000157,0.00000151,-0.00000353,-0.12357265,0.13369474,0.00002896,0.0
 0006634,-0.00004884,-0.00000060,-0.00004087,-0.00000979,0.00000609,-0.
 00000309,-0.00000352,-0.00000477,-0.00001379,-0.00000275,0.00001677,0.
 00001658,-0.00000269,-0.00003294,0.00000519,0.00002656,0.00000102,0.00
 000213,0.00000036,0.00000102,0.00000225,-0.00000165,0.00000103,-0.0000
 0004,-0.00000188,-0.00000517,-0.00000314,0.00000813,-0.00006926,-0.000
 06329,0.00000961,-0.00017673,0.00003395,-0.00045576,-0.00000911,0.0001
 0867,0.00001106,0.00088044,0.00006940,-0.00128123,0.00000697,-0.000020
 04,0.00000701,-0.00002623,0.00000686,0.00000357,-0.00000390,0.00000428
 ,-0.00001020,0.00000663,-0.00001106,0.00000277,-0.00028071,0.00107879,
 0.00018533,-0.00009549,0.00008143,0.00000881,0.00002448,0.00000569,-0.
 00000459,-0.00494824,-0.00500112,0.00020080,-0.00243491,-0.00449754,0.
 00274662,0.00000999,-0.00001098,0.00000198,-0.00000289,0.00000292,-0.0
 0000525,-0.00000346,-0.00000136,-0.00000347,-0.00000469,0.00000210,0.0
 0000469,0.00000234,0.00000259,0.00000129,0.00000396,-0.00000110,0.0000
 0086,-0.00007147,-0.00004162,-0.00003457,-0.00001611,0.00002571,-0.000
 01025,-0.00003444,-0.00002099,-0.00002467,-0.00000275,0.00000242,0.000
 01361,-0.00000202,-0.00000197,0.,-0.01849998,0.01286860,-0.00594706,0.
 00835857,-0.00688534,0.00987479,0.00078585,-0.00014706,0.00008517,-0.0
 0000272,-0.00000219,0.00000342,-0.00000576,0.00000113,-0.00000075,0.00
 000699,-0.00000594,-0.00000770,-0.00000403,-0.00000921,0.00000023,-0.0
 0000010,0.00000317,-0.00000123,0.00000247,-0.00000226,0.00000162,-0.00
 000140,0.00000098,-0.00000023,-0.00000027,0.00000058,0.00000044,0.0000
 2004,-0.00003239,0.00004212,0.00003289,0.00002818,0.00000840,0.0000028
 5,0.00000354,-0.00001180,-0.00000091,0.00000137,-0.00000008,-0.1006980
 8,0.05995139,-0.10894135,0.00245170,0.00123878,-0.00086397,0.00155686,
 0.00165405,-0.00116494,-0.00000192,-0.00000121,0.00000024,-0.00000119,
 0.00000019,0.,-0.00000071,-0.00000019,0.00000117,0.00000021,0.00000178
 ,0.00000099,-0.00000030,-0.00000018,-0.00000079,-0.00000964,-0.0000099
 1,-0.00001062,0.11281649,-0.06057659,0.10569358,-0.00004970,-0.0000013
 5,0.00004532,0.00000409,-0.00000349,-0.00002111,-0.00001118,-0.0000003
 6,0.00000790,0.00000349,-0.00001968,-0.00001335,0.00000716,0.00003518,
 0.00001891,-0.00000802,-0.00003625,0.00001139,-0.00000286,-0.00000310,
 -0.00000104,-0.00000277,-0.00000249,0.00000115,-0.00000420,0.00000014,
 0.00000130,0.00000039,0.00000511,-0.00000220,0.00012608,0.00004959,-0.
 00009952,0.00001825,-0.00003261,-0.00000571,0.00002093,-0.00008985,-0.
 00003214,-0.00002604,-0.00001967,0.00003182,0.00004990,0.00029323,-0.0
 0047196,0.00002245,0.00002518,-0.00000803,0.00023146,0.00008917,-0.000
 11734,0.00007003,-0.00004986,0.00003563,0.00002281,-0.00002113,-0.0000
 1648,-0.00001387,0.00000871,-0.00000689,-0.00001890,0.00002283,0.00004
 408,0.00002991,-0.00004453,-0.00002302,0.00003801,0.00003048,0.0000271
 4,0.00127986,0.00141466,-0.00117154,-0.00376399,0.00282623,-0.00247749
 ,0.00000454,-0.00000250,-0.00000435,-0.00000225,-0.00005970,0.00007403
 ,-0.00006168,-0.00000745,0.00000966,-0.00000163,0.00000333,-0.00000466
 ,0.00000360,0.00000721,0.00000944,0.00000532,-0.00000312,0.00000019,0.
 00000120,-0.00000501,-0.00000568,-0.00001332,-0.00003700,-0.00000752,0
 .00000273,0.00001969,0.00000674,-0.00000288,0.00000117,-0.00000127,0.0
 0000090,-0.00000004,-0.00000677,0.00000185,-0.00000248,0.00000258,0.00
 719071,0.00250194,-0.00300697,-0.01710616,-0.01068195,0.01357000,-0.00
 085258,-0.00065378,0.00076908,0.00001469,0.00001075,-0.00000765,-0.000
 00187,-0.00000350,0.00000070,-0.00000127,0.00002998,-0.00003595,-0.000
 00914,0.00000286,-0.00000704,-0.00000188,0.00000072,0.00000457,-0.0000
 0647,0.00000492,-0.00000468,-0.00000180,0.00000185,-0.00000001,0.00000
 067,0.00000261,0.00000233,-0.00000022,-0.00000171,-0.00000405,0.000003
 27,0.00000237,0.00000200,-0.00000245,0.00000222,0.00000015,-0.00000359
 ,0.00000086,-0.00000201,-0.25843825,-0.08070811,0.10568951,0.00068677,
 -0.00039092,0.00015150,0.00121200,-0.00009527,-0.00020355,-0.00000075,
 -0.00000352,-0.00000163,0.00000439,-0.00000377,0.00000401,-0.00000047,
 0.00000170,0.00000148,-0.00000224,0.00000086,-0.00000075,0.26925946,-0
 .00008322,0.00001891,0.00008366,-0.00000154,0.00006564,0.00003242,0.00
 000862,-0.00000545,-0.00000229,0.00000408,0.00004542,0.00002299,-0.000
 04412,-0.00006550,0.00000697,0.00004490,-0.00002960,-0.00005526,-0.000
 00038,-0.00000108,0.00000077,-0.00000074,0.00000043,0.00000063,-0.0000
 0412,-0.00000149,0.00000114,0.00000275,-0.00000129,-0.00000028,-0.0000
 4365,-0.00044341,0.00026070,0.00001867,0.00001655,-0.00006378,-0.00002
 107,0.00014648,0.00004737,0.00002237,-0.00000157,0.00001307,0.00016685
 ,-0.00142203,-0.00103486,-0.00003951,-0.00002735,0.00002402,-0.0010223
 5,0.00010474,-0.00027263,-0.00010060,0.00000874,0.00005182,-0.00000111
 ,0.00001106,0.00000655,0.00001854,-0.00000701,0.00000655,0.00003006,-0
 .00001742,-0.00007494,0.00000668,0.00001683,-0.00000279,-0.00002898,-0
 .00000663,-0.00002270,0.00143237,0.00239740,0.00696906,0.00281372,0.00
 398862,0.00452787,-0.00000451,-0.00000159,0.00000534,0.00001028,-0.000
 00736,0.00007780,-0.00006563,-0.00001440,0.00000918,-0.00000114,-0.000
 01315,0.00004073,0.00000104,-0.00000437,0.00000326,-0.00001272,-0.0000
 0127,-0.00000227,0.00000510,-0.00000392,-0.00001011,0.00002753,0.00006
 071,0.00000719,0.00000252,0.00001253,0.00001657,-0.00000953,-0.0000055
 3,-0.00000986,0.00000859,-0.00000521,0.00000311,-0.00000099,-0.0000002
 3,-0.00000029,-0.01788182,-0.00228233,0.00934912,0.00962115,0.00876580
 ,-0.00437187,0.00049678,-0.00009301,-0.00061856,-0.00003190,-0.0000273
 0,0.00001697,-0.00000023,-0.00000096,-0.00000012,0.00004498,0.00005588
 ,-0.00002035,-0.00000720,-0.00000856,-0.00003760,-0.00000049,-0.000011
 45,-0.00000285,0.00000159,0.00000555,0.00000340,-0.00000003,0.00000007
 ,-0.00000034,0.00000058,-0.00000079,-0.00000029,0.00000321,-0.00000236
 ,0.00000173,-0.00000565,0.00000961,0.00000447,0.00000149,-0.00000007,-
 0.00000011,0.00000042,-0.00000016,-0.00000076,-0.08033977,-0.08350160,
 0.05226757,-0.00001317,-0.00179859,-0.00278358,-0.00062874,-0.00184338
 ,-0.00221827,-0.00000213,-0.00000140,0.00000041,0.00000328,-0.00000759
 ,0.00001322,0.00000055,0.00000058,-0.00000079,0.00000008,0.00000010,0.
 00000013,0.08541331,0.07652269,-0.00000715,0.00008609,0.00004204,0.000
 00966,0.00001297,-0.00000470,0.00000301,-0.00000544,0.00000282,-0.0000
 0055,0.00001850,0.00001025,-0.00001746,-0.00003576,-0.00000537,0.00000
 529,0.00000575,-0.00001613,0.00000199,0.00000227,0.00000053,0.00000150
 ,0.00000170,-0.00000107,0.00000062,-0.00000134,0.00000015,0.00000014,-
 0.00000469,-0.00000070,0.00010291,0.00016025,-0.00046804,0.00001573,0.
 00002770,-0.00004280,-0.00001735,0.00014528,0.00004568,0.00001018,-0.0
 0002114,0.00003643,-0.00041064,-0.00084503,-0.00126985,-0.00005495,-0.
 00003353,0.00003593,0.00104785,-0.00032413,0.00017196,0.00010915,0.000
 03232,0.00002192,0.00000800,0.00001236,-0.00000363,0.00000039,0.000004
 81,0.00000564,0.00002951,-0.00002758,-0.00006867,0.00002046,-0.0000015
 0,-0.00001439,0.00000219,-0.00001332,0.00000092,-0.00134553,0.00694727
 ,0.00060131,-0.00227941,0.00446764,0.00319792,-0.00000311,-0.00000751,
 -0.00000055,0.00000046,0.00007934,-0.00004026,0.00002361,0.00000098,-0
 .00000865,0.00000163,0.00003790,-0.00002452,0.00000002,-0.00001096,-0.
 00000194,-0.00000512,-0.00000003,0.00000279,0.00000149,0.00001009,0.00
 001110,0.00003012,0.00006418,0.00000704,-0.00000905,0.,-0.00000618,0.0
 0000374,-0.00000832,0.00000056,0.00000385,0.00000352,0.00000408,-0.000
 00346,0.00000225,-0.00000237,0.02023943,0.00823300,-0.00563368,-0.0096
 1402,-0.00308816,0.00956861,-0.00053292,-0.00053627,0.00004207,-0.0000
 3705,-0.00002640,0.00001946,0.00000154,0.00000169,-0.00000070,-0.00004
 059,0.00000513,0.00003876,0.00000631,-0.00004295,0.00000765,0.00000001
 ,-0.00000484,-0.00001391,0.00000550,-0.00000096,0.00000483,0.00000067,
 -0.00000134,-0.00000035,0.00000061,-0.00000125,-0.00000225,0.00000272,
 -0.00000049,0.00000475,-0.00000234,-0.00000167,-0.00000065,0.00000193,
 -0.00000138,0.00000059,0.00000275,-0.00000030,-0.00000003,0.10528432,0
 .05223457,-0.10823879,-0.00025896,-0.00276326,-0.00101744,0.00041786,-
 0.00223811,-0.00129990,-0.00000029,0.00000211,0.00000161,-0.00000330,0
 .00001353,-0.00001056,0.00000143,-0.00000084,-0.00000073,0.00000046,-0
 .00000050,0.00000034,-0.11265779,-0.06196528,0.10456323,-0.04003274,-0
 .00219403,0.01831093,-0.00224523,-0.03108282,-0.01407201,-0.00055637,0
 .00161632,0.00230410,-0.00198265,-0.01210650,-0.00490486,0.01320209,0.
 01500760,-0.00114304,-0.02482783,0.00418071,0.02649044,0.00042147,0.00
 064595,-0.00057402,-0.00005000,0.00002359,-0.00041240,0.00096171,0.000
 18577,-0.00000100,-0.00059672,0.00000819,-0.00189457,-0.05083748,-0.00
 365330,-0.00725615,-0.04729866,-0.01185449,0.00478240,-0.04802179,-0.0
 2285346,0.00162790,-0.05099827,-0.00113605,-0.00859080,-0.04679176,-0.
 00258509,0.01030920,0.00829091,-0.00638503,-0.01096826,-0.03387958,-0.
 00857254,0.01046816,0.00574794,0.01292123,-0.01557362,-0.00444151,0.01
 089754,0.00117940,0.00379893,-0.00606303,-0.00529655,-0.00391687,0.020
 93064,0.01700300,-0.00080132,0.02745332,0.01488302,-0.01608649,-0.0009
 4945,-0.02265853,-0.03135023,0.00871904,-0.00686466,0.00226609,-0.0124
 7682,0.01165083,-0.00276586,-0.00374340,0.00250043,-0.00089449,0.00260
 796,-0.00119832,0.00748122,-0.00383954,0.00357589,0.00000768,-0.001005
 49,0.00170267,0.00042957,0.00523191,-0.00123790,0.00281860,-0.00080007
 ,-0.00454306,-0.00170012,-0.00209482,0.00018785,-0.00709229,-0.0144686
 7,0.00268713,-0.00137393,0.00154647,-0.00007193,0.00044319,-0.00190041
 ,-0.00466249,0.00884176,-0.00572462,-0.00130521,-0.00141672,-0.0001635
 9,0.00160959,-0.00125119,-0.00213656,0.00205998,0.00556571,0.00301710,
 -0.00407682,0.00031875,0.00150305,-0.00148162,0.00590894,0.00486558,-0
 .00316703,-0.00022670,-0.00080171,-0.00088678,-0.00538732,-0.00234615,
 0.00300226,0.00024349,0.00014286,0.00015915,0.00095666,-0.00050716,0.0
 0053025,-0.00322743,0.00189595,-0.00171966,-0.00027967,0.00087508,0.00
 057213,-0.00004805,-0.00027888,0.00020590,0.00027520,0.00000313,0.0003
 6872,-0.00108217,0.00566061,0.00276131,0.00065065,-0.00048960,0.000520
 35,0.00019194,-0.00044468,0.00050957,-0.00563145,0.00198154,-0.0021782
 0,-0.00003462,0.00012485,0.00017324,0.00074632,0.00040799,-0.00018068,
 -0.00011880,0.00024991,-0.00033590,0.00014441,-0.00014768,0.00011015,-
 0.00058068,-0.00021508,0.00046738,-0.00028397,-0.00029753,0.00042904,0
 .00009553,0.00018493,-0.00009804,0.36830219,-0.01757797,-0.06290007,0.
 00867691,-0.01243867,-0.01362585,0.00437808,-0.00264101,-0.00414614,-0
 .00130705,0.00029040,0.00153009,0.00051096,-0.00235917,-0.00676892,-0.
 00369395,0.00865907,0.01098626,-0.00426355,-0.00041460,-0.00031602,0.0
 0071275,0.00028483,0.00006242,0.00013489,0.00043520,0.00038614,-0.0004
 2026,0.00196760,-0.00046619,-0.00099783,-0.00116044,-0.05489199,0.0054
 8788,-0.00275505,-0.05502134,-0.00891568,-0.00708363,-0.05473841,-0.01
 993811,-0.00447298,-0.05447941,0.00340052,-0.01174631,-0.05574658,0.00
 064442,-0.02435647,-0.02369803,0.00998295,0.00830608,0.01019667,-0.011
 55789,0.01182727,-0.00928026,0.01700549,0.02361535,-0.02027972,0.00895
 552,-0.01124218,-0.00816704,-0.01662486,0.01610907,-0.00967474,-0.0200
 9574,0.01072820,-0.02323553,-0.00296645,0.00030980,0.01293586,0.004849
 69,-0.00445745,0.00652900,-0.00527129,-0.00707443,-0.00688536,0.012830
 39,0.00035475,-0.00200799,-0.00144333,-0.00246696,0.00064447,0.0050354
 7,-0.00652372,0.00357539,0.00382632,0.00056311,-0.00215041,-0.00095902
 ,-0.00114251,0.00059253,-0.00303932,0.00150890,0.00668416,0.00207910,0
 .00029926,-0.00003485,0.00185234,0.00261796,0.01303732,0.00272534,-0.0
 0037928,0.00031564,0.00214060,0.00317387,-0.00053954,-0.00148548,-0.00
 286717,0.00198082,-0.00508549,-0.00187955,-0.00072165,-0.00106610,0.00
 440360,0.00224252,0.00244027,0.00061784,0.00394335,0.00295030,-0.00083
 830,-0.00199825,-0.00118708,-0.00724465,-0.00602819,0.00394217,0.00026
 774,0.00033929,0.00012760,0.00329699,0.00091148,-0.00170726,-0.0007275
 8,0.00046924,-0.00050840,-0.00001978,-0.00035967,-0.00028085,0.0032011
 3,-0.00336547,0.00151355,-0.00002671,0.00053578,0.00015498,-0.00005997
 ,0.00081232,0.00033843,-0.00024106,0.00107076,0.00019808,0.00016480,-0
 .00338527,-0.00169430,0.00036587,0.00001656,0.00013692,-0.00094844,0.0
 0041983,-0.00033502,0.00067390,-0.00113140,0.00083302,0.00101333,0.000
 28187,-0.00058134,0.00016380,0.00001936,-0.00034547,-0.00000041,0.0001
 0618,0.00030003,-0.00005821,-0.00055879,-0.00045069,-0.00021067,0.0000
 7908,0.00038608,-0.00040915,-0.00011272,0.00013328,0.00017531,-0.00058
 794,-0.00059893,0.03042945,0.40659937,0.02466306,0.01119754,-0.0473803
 1,0.00165181,0.01140391,0.00691232,-0.00188578,-0.00329110,0.00049240,
 0.00079713,0.00190727,-0.00034948,-0.00260620,-0.00521255,0.00119578,0
 .01789110,0.00306734,-0.01306245,-0.00050213,-0.00049461,0.00051178,0.
 00002229,0.00001865,0.00003457,-0.00002680,-0.00010760,0.00016487,-0.0
 0030953,0.00055856,-0.00068145,-0.01802058,0.00479305,-0.04111965,0.00
 689704,-0.01458544,-0.04546513,0.00245182,-0.02697169,-0.04742630,-0.0
 1292228,0.01332796,-0.04147540,0.01605655,0.00152720,-0.04522042,-0.00
 869837,-0.00688453,0.00693058,-0.00779424,-0.00290270,0.00555672,-0.00
 762577,0.01293728,-0.00953485,0.00624160,-0.00495665,0.00549269,-0.005
 09812,-0.01369967,-0.00824705,0.00622412,-0.01689664,-0.01293545,-0.00
 157814,0.00853739,0.00542334,-0.01524822,0.00033939,-0.00962808,0.0077
 7644,-0.00310842,0.00532706,0.00900403,0.01145959,-0.00813464,0.002003
 22,0.00324930,0.00040203,0.00385310,0.00238825,0.00053077,0.00054721,0
 .00021780,0.00185126,-0.00108242,0.00005668,-0.00091772,-0.00405264,0.
 00115928,0.00049642,-0.00162758,0.00006634,0.00222798,0.00090335,0.000
 00557,-0.00097789,0.00312055,0.00470849,0.00120211,-0.00069679,0.00001
 335,-0.00068675,-0.00013328,-0.00447306,0.00064385,0.00006264,-0.00053
 488,0.00177622,-0.00069990,0.00085776,-0.00099290,-0.00299381,0.002903
 11,0.00063986,-0.00089046,0.00131349,0.00229190,0.00041012,-0.00072477
 ,-0.00094494,-0.00122457,-0.00160662,-0.00033727,0.00018176,0.00069627
 ,0.00051832,-0.00134864,0.00077411,-0.00139114,0.00063040,-0.00012780,
 0.00057805,0.00024443,-0.00026709,-0.00007595,0.00053516,-0.00153064,-
 0.00108015,-0.00017809,0.00049534,0.00054051,0.00002201,0.00018851,-0.
 00007637,0.00007214,0.00008185,0.00015567,-0.00135388,0.00074221,-0.00
 145876,0.00040712,-0.00047387,0.00057907,0.00034899,-0.00006671,-0.000
 08315,0.00158733,0.00031205,-0.00109239,-0.00050945,-0.00009489,0.0005
 3741,-0.00016772,-0.00012385,-0.00007252,-0.00001286,-0.00002386,0.000
 02685,0.00012074,-0.00018696,-0.00010401,0.00022397,0.00022677,-0.0002
 4934,0.00021773,-0.00001855,-0.00009396,-0.00009245,-0.00030294,-0.000
 25220,-0.01578825,0.00813643,0.28850769\\0.00002026,0.00001712,0.00001
 162,-0.00001101,-0.00002666,-0.00002442,0.00000116,0.00000547,0.000008
 25,-0.00000135,-0.00000930,-0.00000328,0.00001086,0.00002540,-0.000005
 15,-0.00001169,0.00000277,0.00001933,-0.00000103,0.00000194,-0.0000011
 6,-0.00000406,0.00000540,-0.00000134,0.00000171,0.00000437,0.00000222,
 -0.00000096,0.00000368,-0.00000064,-0.00002542,-0.00001400,0.00000849,
 0.00000741,-0.00000829,0.00000565,-0.00001480,-0.00006973,-0.00001518,
 -0.00001028,-0.00000745,-0.00002148,-0.00001864,0.00001700,-0.00002300
 ,0.00002009,0.00004239,0.00000236,0.00001325,0.00001182,-0.00001528,-0
 .00000373,0.00000018,-0.00000515,-0.00002316,0.00001191,-0.00003129,-0
 .00000297,0.00000467,0.00000284,-0.00001119,0.00003462,0.00003008,0.00
 001088,0.00001951,0.00002926,0.00001845,0.00001077,0.00001290,0.000012
 49,-0.00002118,0.00002399,0.00001074,-0.00001087,0.00000272,-0.0000091
 3,-0.00001229,0.00000923,-0.00000096,-0.00000814,0.00000063,-0.0000018
 0,-0.00000003,0.00000266,0.00000145,0.00000783,0.00000834,0.00000700,-
 0.00001269,-0.00000316,0.00000835,-0.00000622,0.00000241,0.00000321,0.
 00000112,-0.00000224,-0.00002274,-0.00003612,-0.00000092,-0.00000061,-
 0.00000406,-0.00000383,0.00001151,-0.00000534,0.00000184,-0.00000893,0
 .00000204,-0.00000349,-0.00000406,-0.00000145,-0.00000102,-0.00000057,
 -0.00000003,-0.00000473,-0.00000325,-0.00000274,-0.00000188,-0.0000016
 9,-0.00000384,-0.00000377,0.00002103,0.00002475,-0.00000803,-0.0000041
 3,0.00000289,0.00000486,0.00000008,-0.00000197,-0.00000301,-0.00000381
 ,-0.00000139,-0.00000088,-0.00000279,-0.00000460,-0.00000294,0.0000023
 9,0.00000256,-0.00000737,0.00000569,0.00000269,-0.00000241,0.00000343,
 0.00000044,-0.00000298,0.00000103,-0.00000007,0.00000501,0.00000339,-0
 .00000404,-0.00000193,0.00000372,0.00000320,-0.00000150,0.00000233,0.0
 0000119,-0.00000012,0.00000616,-0.00000612,0.00000215,-0.00000268,-0.0
 0000587,0.00000366,0.00000215,-0.00000244,0.00000020,-0.00001241,-0.00
 000078,0.00000094,-0.00000288,-0.00000089,0.00000365,0.00000191,0.0000
 0065,-0.00000088,0.00000272,0.00000380,-0.00000115,-0.00000018,-0.0000
 0636,-0.00000354,0.00000806,0.00002281,0.00000386\\\@


 Not by the face shall a man be known, but by the mask.
                               -- Karen Blixen
 Job cpu time:       5 days 11 hours 40 minutes 24.5 seconds.
 Elapsed time:       0 days  8 hours 16 minutes 31.9 seconds.
 File lengths (MBytes):  RWF=  14672 Int=      0 D2E=      0 Chk=    240 Scr=     32
 Normal termination of Gaussian 16 at Thu Oct 24 13:17:44 2024.
