 Entering Gaussian System, Link 0=g16
 Input=TDoptfreq_Osbpy_triplets_2.gjf
 Output=TDoptfreq_Osbpy_triplets_2.log
 Initial command:
 /usr/local/apps/g16.a03/g16/l1.exe "/share/ejakubi/mrrutled/scratch/831768/Gau-3917030.inp" -scrdir="/share/ejakubi/mrrutled/scratch/831768/"
 Entering Link 1 = /usr/local/apps/g16.a03/g16/l1.exe PID=   3917039.
  
 Copyright (c) 1988,1990,1992,1993,1995,1998,2003,2009,2016,
            Gaussian, Inc.  All Rights Reserved.
  
 This is part of the Gaussian(R) 16 program.  It is based on
 the Gaussian(R) 09 system (copyright 2009, Gaussian, Inc.),
 the Gaussian(R) 03 system (copyright 2003, Gaussian, Inc.),
 the Gaussian(R) 98 system (copyright 1998, Gaussian, Inc.),
 the Gaussian(R) 94 system (copyright 1995, Gaussian, Inc.),
 the Gaussian 92(TM) system (copyright 1992, Gaussian, Inc.),
 the Gaussian 90(TM) system (copyright 1990, Gaussian, Inc.),
 the Gaussian 88(TM) system (copyright 1988, Gaussian, Inc.),
 the Gaussian 86(TM) system (copyright 1986, Carnegie Mellon
 University), and the Gaussian 82(TM) system (copyright 1983,
 Carnegie Mellon University). Gaussian is a federally registered
 trademark of Gaussian, Inc.
  
 This software contains proprietary and confidential information,
 including trade secrets, belonging to Gaussian, Inc.
  
 This software is provided under written license and may be
 used, copied, transmitted, or stored only in accord with that
 written license.
  
 The following legend is applicable only to US Government
 contracts under FAR:
  
                    RESTRICTED RIGHTS LEGEND
  
 Use, reproduction and disclosure by the US Government is
 subject to restrictions as set forth in subparagraphs (a)
 and (c) of the Commercial Computer Software - Restricted
 Rights clause in FAR 52.227-19.
  
 Gaussian, Inc.
 340 Quinnipiac St., Bldg. 40, Wallingford CT 06492
  
  
 ---------------------------------------------------------------
 Warning -- This program may not be used in any manner that
 competes with the business of Gaussian, Inc. or will provide
 assistance to any competitor of Gaussian, Inc.  The licensee
 of this program is prohibited from giving any competitor of
 Gaussian, Inc. access to this program.  By using this program,
 the user acknowledges that Gaussian, Inc. is engaged in the
 business of creating and licensing software in the field of
 computational chemistry and represents and warrants to the
 licensee that it is not a competitor of Gaussian, Inc. and that
 it will not use this program in any manner prohibited above.
 ---------------------------------------------------------------
  

 Cite this work as:
 Gaussian 16, Revision A.03,
 M. J. Frisch, G. W. Trucks, H. B. Schlegel, G. E. Scuseria, 
 M. A. Robb, J. R. Cheeseman, G. Scalmani, V. Barone, 
 G. A. Petersson, H. Nakatsuji, X. Li, M. Caricato, A. V. Marenich, 
 J. Bloino, B. G. Janesko, R. Gomperts, B. Mennucci, H. P. Hratchian, 
 J. V. Ortiz, A. F. Izmaylov, J. L. Sonnenberg, D. Williams-Young, 
 F. Ding, F. Lipparini, F. Egidi, J. Goings, B. Peng, A. Petrone, 
 T. Henderson, D. Ranasinghe, V. G. Zakrzewski, J. Gao, N. Rega, 
 G. Zheng, W. Liang, M. Hada, M. Ehara, K. Toyota, R. Fukuda, 
 J. Hasegawa, M. Ishida, T. Nakajima, Y. Honda, O. Kitao, H. Nakai, 
 T. Vreven, K. Throssell, J. A. Montgomery, Jr., J. E. Peralta, 
 F. Ogliaro, M. J. Bearpark, J. J. Heyd, E. N. Brothers, K. N. Kudin, 
 V. N. Staroverov, T. A. Keith, R. Kobayashi, J. Normand, 
 K. Raghavachari, A. P. Rendell, J. C. Burant, S. S. Iyengar, 
 J. Tomasi, M. Cossi, J. M. Millam, M. Klene, C. Adamo, R. Cammi, 
 J. W. Ochterski, R. L. Martin, K. Morokuma, O. Farkas, 
 J. B. Foresman, and D. J. Fox, Gaussian, Inc., Wallingford CT, 2016.
 
 ******************************************
 Gaussian 16:  ES64L-G16RevA.03 25-Dec-2016
                17-Oct-2024 
 ******************************************
 %chk=TDoptfreq_Osbpy_triplets_2.chk
 %mem=48GB
 %nprocshared=16
 Will use up to   16 processors via shared memory.
 ----------------------------------------------------------------------
 #p opt freq=savenormalmodes td=(triplets,nstates=8,root=2)/genecp scrf
 =(solvent=acetonitrile,pcm)integral=grid=ultrafine scf=(tight,xqc) sym
 metry=none tpssh
 ----------------------------------------------------------------------
 1/18=20,19=15,26=6,38=1/1,3;
 2/9=110,12=2,15=3,17=6,18=5,40=1/2;
 3/5=7,11=9,16=1,17=8,25=1,30=1,70=2201,71=1,72=2,74=-35,75=-5/1,2,3,8;
 4//1;
 5/5=2,8=3,13=1,32=2,38=5,53=2/2,8;
 8/6=1,10=1,107=2,108=8/1;
 9/8=2,15=2,41=8,42=1,48=3,70=2/14;
 10/5=4,28=2,31=1/2;
 6/7=2,8=2,9=2,10=2/1;
 7/12=6,13=5,14=2,30=1,92=1/1,2,3,16;
 1/18=20,19=15,26=6/3(2);
 2/9=110,15=3/2;
 99//99;
 2/9=110,15=3/2;
 3/5=7,6=1,11=9,16=1,17=8,25=1,30=1,70=2205,71=1,72=2,74=-35,75=-5,82=7/1,2,3,8;
 4/5=5,16=3,69=1/1;
 5/5=2,8=3,13=1,32=2,38=5,53=2/2,8;
 8/6=1,10=1,107=2,108=8/1;
 9/8=2,15=2,41=8,42=1,48=3,49=4,70=2/14;
 10/5=4,28=2,31=1/2;
 7/12=6,13=5,14=2,30=1,92=1/1,2,3,16;
 1/18=20,19=15,26=6/3(-8);
 2/9=110,15=3/2;
 6/7=2,8=2,9=2,10=2/1;
 99//99;
 Leave Link    1 at Thu Oct 17 16:05:39 2024, MaxMem=  6442450944 cpu:              16.6 elap:               1.1
 (Enter /usr/local/apps/g16.a03/g16/l101.exe)
 ------
 Osmium
 ------
 Symbolic Z-matrix:
 Charge =  2 Multiplicity = 1
 N                    0     1.50009   1.01217  -1.03967 
 C                    0     1.82569   2.25937  -0.58063 
 C                    0     2.82846   3.01405  -1.19189 
 C                    0     3.51434   2.49736  -2.28378 
 C                    0     3.17917   1.22528  -2.74552 
 C                    0     2.17518   0.51865  -2.10226 
 H                    0     3.07303   3.99879  -0.81554 
 H                    0     4.29427   3.0761   -2.76365 
 H                    0     3.68386   0.77775  -3.59256 
 H                    0     1.88016  -0.4686   -2.43057 
 N                    0    -1.62822   0.79424  -1.0368 
 N                    0     0.12827  -1.80699  -1.03684 
 N                    0     0.12827   1.80699   1.03684 
 N                    0     1.50009  -1.01217   1.03967 
 N                    0    -1.62822  -0.79423   1.0368 
 C                    0     1.04352   2.71237   0.57327 
 C                    0    -2.87061   0.45428  -0.57513 
 C                    0    -1.53923   1.62901  -2.09674 
 C                    0     1.04352  -2.71237  -0.57327 
 C                    0    -0.63414  -2.14657  -2.10064 
 C                    0    -0.63414   2.14657   2.10064 
 C                    0     1.82569  -2.25937   0.58063 
 C                    0     2.17518  -0.51865   2.10226 
 C                    0    -2.87061  -0.45428   0.57513 
 C                    0    -1.53923  -1.62901   2.09674 
 C                    0     1.19599   3.95958   1.18125 
 C                    0    -4.02588   0.95149  -1.18079 
 C                    0    -2.65359   2.15107  -2.73453 
 H                    0    -0.53687   1.86517  -2.42661 
 C                    0     1.19599  -3.95958  -1.18125 
 C                    0    -0.52331  -3.37083  -2.74111 
 H                    0    -1.34073  -1.39806  -2.43211 
 C                    0    -0.52331   3.37083   2.74111 
 H                    0    -1.34073   1.39806   2.43211 
 C                    0     2.82846  -3.01405   1.19189 
 C                    0     3.17917  -1.22529   2.74552 
 H                    0     1.88016   0.4686    2.43057 
 C                    0    -4.02588  -0.95149   1.18079 
 C                    0    -2.65359  -2.15107   2.73453 
 H                    0    -0.53688  -1.86517   2.42661 
 C                    0     0.40849   4.29701   2.27465 
 H                    0     1.92457   4.66346   0.80107 
 C                    0    -3.92232   1.80764  -2.26973 
 H                    0    -5.00075   0.67321  -0.80249 
 H                    0    -2.51922   2.81479  -3.57947 
 C                    0     0.40849  -4.29701  -2.27465 
 H                    0     1.92457  -4.66346  -0.80107 
 H                    0    -1.16091  -3.58562  -3.58957 
 H                    0    -1.16091   3.58562   3.58957 
 C                    0     3.51434  -2.49736   2.28378 
 H                    0     3.07303  -3.99879   0.81554 
 H                    0     3.68386  -0.77775   3.59256 
 C                    0    -3.92232  -1.80764   2.26973 
 H                    0    -5.00075  -0.67321   0.80249 
 H                    0    -2.51922  -2.81479   3.57947 
 H                    0     0.52036   5.26314   2.75173 
 H                    0    -4.81402   2.19865  -2.74464 
 H                    0     0.52036  -5.26314  -2.75173 
 H                    0     4.29427  -3.07611   2.76365 
 H                    0    -4.81402  -2.19865   2.74464 
 Os                   0     0.        0.        0. 
 
 ITRead=  0  0  0  0  0  0  0  0  0  0  0  0  0  0  0  0  0  0  0  0
 ITRead=  0  0  0  0  0  0  0  0  0  0  0  0  0  0  0  0  0  0  0  0
 ITRead=  0  0  0  0  0  0  0  0  0  0  0  0  0  0  0  0  0  0  0  0
 ITRead=  0
 MicOpt= -1 -1 -1 -1 -1 -1 -1 -1 -1 -1 -1 -1 -1 -1 -1 -1 -1 -1 -1 -1
 MicOpt= -1 -1 -1 -1 -1 -1 -1 -1 -1 -1 -1 -1 -1 -1 -1 -1 -1 -1 -1 -1
 MicOpt= -1 -1 -1 -1 -1 -1 -1 -1 -1 -1 -1 -1 -1 -1 -1 -1 -1 -1 -1 -1
 MicOpt= -1
 NAtoms=     61 NQM=       61 NQMF=       0 NMMI=      0 NMMIF=      0
                NMic=       0 NMicF=      0.
                    Isotopes and Nuclear Properties:
 (Nuclear quadrupole moments (NQMom) in fm**2, nuclear magnetic moments (NMagM)
  in nuclear magnetons)

  Atom         1           2           3           4           5           6           7           8           9          10
 IAtWgt=          14          12          12          12          12          12           1           1           1           1
 AtmWgt=  14.0030740  12.0000000  12.0000000  12.0000000  12.0000000  12.0000000   1.0078250   1.0078250   1.0078250   1.0078250
 NucSpn=           2           0           0           0           0           0           1           1           1           1
 AtZEff=   0.0000000   0.0000000   0.0000000   0.0000000   0.0000000   0.0000000   0.0000000   0.0000000   0.0000000   0.0000000
 NQMom=    2.0440000   0.0000000   0.0000000   0.0000000   0.0000000   0.0000000   0.0000000   0.0000000   0.0000000   0.0000000
 NMagM=    0.4037610   0.0000000   0.0000000   0.0000000   0.0000000   0.0000000   2.7928460   2.7928460   2.7928460   2.7928460
 AtZNuc=   7.0000000   6.0000000   6.0000000   6.0000000   6.0000000   6.0000000   1.0000000   1.0000000   1.0000000   1.0000000

  Atom        11          12          13          14          15          16          17          18          19          20
 IAtWgt=          14          14          14          14          14          12          12          12          12          12
 AtmWgt=  14.0030740  14.0030740  14.0030740  14.0030740  14.0030740  12.0000000  12.0000000  12.0000000  12.0000000  12.0000000
 NucSpn=           2           2           2           2           2           0           0           0           0           0
 AtZEff=   0.0000000   0.0000000   0.0000000   0.0000000   0.0000000   0.0000000   0.0000000   0.0000000   0.0000000   0.0000000
 NQMom=    2.0440000   2.0440000   2.0440000   2.0440000   2.0440000   0.0000000   0.0000000   0.0000000   0.0000000   0.0000000
 NMagM=    0.4037610   0.4037610   0.4037610   0.4037610   0.4037610   0.0000000   0.0000000   0.0000000   0.0000000   0.0000000
 AtZNuc=   7.0000000   7.0000000   7.0000000   7.0000000   7.0000000   6.0000000   6.0000000   6.0000000   6.0000000   6.0000000

  Atom        21          22          23          24          25          26          27          28          29          30
 IAtWgt=          12          12          12          12          12          12          12          12           1          12
 AtmWgt=  12.0000000  12.0000000  12.0000000  12.0000000  12.0000000  12.0000000  12.0000000  12.0000000   1.0078250  12.0000000
 NucSpn=           0           0           0           0           0           0           0           0           1           0
 AtZEff=   0.0000000   0.0000000   0.0000000   0.0000000   0.0000000   0.0000000   0.0000000   0.0000000   0.0000000   0.0000000
 NQMom=    0.0000000   0.0000000   0.0000000   0.0000000   0.0000000   0.0000000   0.0000000   0.0000000   0.0000000   0.0000000
 NMagM=    0.0000000   0.0000000   0.0000000   0.0000000   0.0000000   0.0000000   0.0000000   0.0000000   2.7928460   0.0000000
 AtZNuc=   6.0000000   6.0000000   6.0000000   6.0000000   6.0000000   6.0000000   6.0000000   6.0000000   1.0000000   6.0000000

  Atom        31          32          33          34          35          36          37          38          39          40
 IAtWgt=          12           1          12           1          12          12           1          12          12           1
 AtmWgt=  12.0000000   1.0078250  12.0000000   1.0078250  12.0000000  12.0000000   1.0078250  12.0000000  12.0000000   1.0078250
 NucSpn=           0           1           0           1           0           0           1           0           0           1
 AtZEff=   0.0000000   0.0000000   0.0000000   0.0000000   0.0000000   0.0000000   0.0000000   0.0000000   0.0000000   0.0000000
 NQMom=    0.0000000   0.0000000   0.0000000   0.0000000   0.0000000   0.0000000   0.0000000   0.0000000   0.0000000   0.0000000
 NMagM=    0.0000000   2.7928460   0.0000000   2.7928460   0.0000000   0.0000000   2.7928460   0.0000000   0.0000000   2.7928460
 AtZNuc=   6.0000000   1.0000000   6.0000000   1.0000000   6.0000000   6.0000000   1.0000000   6.0000000   6.0000000   1.0000000

  Atom        41          42          43          44          45          46          47          48          49          50
 IAtWgt=          12           1          12           1           1          12           1           1           1          12
 AtmWgt=  12.0000000   1.0078250  12.0000000   1.0078250   1.0078250  12.0000000   1.0078250   1.0078250   1.0078250  12.0000000
 NucSpn=           0           1           0           1           1           0           1           1           1           0
 AtZEff=   0.0000000   0.0000000   0.0000000   0.0000000   0.0000000   0.0000000   0.0000000   0.0000000   0.0000000   0.0000000
 NQMom=    0.0000000   0.0000000   0.0000000   0.0000000   0.0000000   0.0000000   0.0000000   0.0000000   0.0000000   0.0000000
 NMagM=    0.0000000   2.7928460   0.0000000   2.7928460   2.7928460   0.0000000   2.7928460   2.7928460   2.7928460   0.0000000
 AtZNuc=   6.0000000   1.0000000   6.0000000   1.0000000   1.0000000   6.0000000   1.0000000   1.0000000   1.0000000   6.0000000

  Atom        51          52          53          54          55          56          57          58          59          60
 IAtWgt=           1           1          12           1           1           1           1           1           1           1
 AtmWgt=   1.0078250   1.0078250  12.0000000   1.0078250   1.0078250   1.0078250   1.0078250   1.0078250   1.0078250   1.0078250
 NucSpn=           1           1           0           1           1           1           1           1           1           1
 AtZEff=   0.0000000   0.0000000   0.0000000   0.0000000   0.0000000   0.0000000   0.0000000   0.0000000   0.0000000   0.0000000
 NQMom=    0.0000000   0.0000000   0.0000000   0.0000000   0.0000000   0.0000000   0.0000000   0.0000000   0.0000000   0.0000000
 NMagM=    2.7928460   2.7928460   0.0000000   2.7928460   2.7928460   2.7928460   2.7928460   2.7928460   2.7928460   2.7928460
 AtZNuc=   1.0000000   1.0000000   6.0000000   1.0000000   1.0000000   1.0000000   1.0000000   1.0000000   1.0000000   1.0000000

  Atom        61
 IAtWgt=         190
 AtmWgt= 189.9586000
 NucSpn=           0
 AtZEff=   0.0000000
 NQMom=    0.0000000
 NMagM=    0.0000000
 AtZNuc=  76.0000000
 Leave Link  101 at Thu Oct 17 16:05:40 2024, MaxMem=  6442450944 cpu:               6.8 elap:               0.5
 (Enter /usr/local/apps/g16.a03/g16/l103.exe)

 GradGradGradGradGradGradGradGradGradGradGradGradGradGradGradGradGradGrad
 Berny optimization.
 Initialization pass.
                           ----------------------------
                           !    Initial Parameters    !
                           ! (Angstroms and Degrees)  !
 --------------------------                            --------------------------
 ! Name  Definition              Value          Derivative Info.                !
 --------------------------------------------------------------------------------
 ! R1    R(1,2)                  1.3683         estimate D2E/DX2                !
 ! R2    R(1,6)                  1.3522         estimate D2E/DX2                !
 ! R3    R(1,61)                 2.087          estimate D2E/DX2                !
 ! R4    R(2,3)                  1.396          estimate D2E/DX2                !
 ! R5    R(2,16)                 1.4658         estimate D2E/DX2                !
 ! R6    R(3,4)                  1.3891         estimate D2E/DX2                !
 ! R7    R(3,7)                  1.0822         estimate D2E/DX2                !
 ! R8    R(4,5)                  1.3942         estimate D2E/DX2                !
 ! R9    R(4,8)                  1.0833         estimate D2E/DX2                !
 ! R10   R(5,6)                  1.386          estimate D2E/DX2                !
 ! R11   R(5,9)                  1.0828         estimate D2E/DX2                !
 ! R12   R(6,10)                 1.0814         estimate D2E/DX2                !
 ! R13   R(11,17)                1.3683         estimate D2E/DX2                !
 ! R14   R(11,18)                1.3521         estimate D2E/DX2                !
 ! R15   R(11,61)                2.0873         estimate D2E/DX2                !
 ! R16   R(12,19)                1.3683         estimate D2E/DX2                !
 ! R17   R(12,20)                1.3521         estimate D2E/DX2                !
 ! R18   R(12,61)                2.0873         estimate D2E/DX2                !
 ! R19   R(13,16)                1.3683         estimate D2E/DX2                !
 ! R20   R(13,21)                1.3521         estimate D2E/DX2                !
 ! R21   R(13,61)                2.0873         estimate D2E/DX2                !
 ! R22   R(14,22)                1.3683         estimate D2E/DX2                !
 ! R23   R(14,23)                1.3522         estimate D2E/DX2                !
 ! R24   R(14,61)                2.087          estimate D2E/DX2                !
 ! R25   R(15,24)                1.3683         estimate D2E/DX2                !
 ! R26   R(15,25)                1.3521         estimate D2E/DX2                !
 ! R27   R(15,61)                2.0873         estimate D2E/DX2                !
 ! R28   R(16,26)                1.3959         estimate D2E/DX2                !
 ! R29   R(17,24)                1.4658         estimate D2E/DX2                !
 ! R30   R(17,27)                1.396          estimate D2E/DX2                !
 ! R31   R(18,28)                1.386          estimate D2E/DX2                !
 ! R32   R(18,29)                1.0813         estimate D2E/DX2                !
 ! R33   R(19,22)                1.4658         estimate D2E/DX2                !
 ! R34   R(19,30)                1.3959         estimate D2E/DX2                !
 ! R35   R(20,31)                1.3861         estimate D2E/DX2                !
 ! R36   R(20,32)                1.0814         estimate D2E/DX2                !
 ! R37   R(21,33)                1.3861         estimate D2E/DX2                !
 ! R38   R(21,34)                1.0814         estimate D2E/DX2                !
 ! R39   R(22,35)                1.396          estimate D2E/DX2                !
 ! R40   R(23,36)                1.386          estimate D2E/DX2                !
 ! R41   R(23,37)                1.0814         estimate D2E/DX2                !
 ! R42   R(24,38)                1.396          estimate D2E/DX2                !
 ! R43   R(25,39)                1.386          estimate D2E/DX2                !
 ! R44   R(25,40)                1.0813         estimate D2E/DX2                !
 ! R45   R(26,41)                1.3891         estimate D2E/DX2                !
 ! R46   R(26,42)                1.082          estimate D2E/DX2                !
 ! R47   R(27,43)                1.3891         estimate D2E/DX2                !
 ! R48   R(27,44)                1.0821         estimate D2E/DX2                !
 ! R49   R(28,43)                1.3941         estimate D2E/DX2                !
 ! R50   R(28,45)                1.0828         estimate D2E/DX2                !
 ! R51   R(30,46)                1.3891         estimate D2E/DX2                !
 ! R52   R(30,47)                1.082          estimate D2E/DX2                !
 ! R53   R(31,46)                1.3941         estimate D2E/DX2                !
 ! R54   R(31,48)                1.0828         estimate D2E/DX2                !
 ! R55   R(33,41)                1.3941         estimate D2E/DX2                !
 ! R56   R(33,49)                1.0828         estimate D2E/DX2                !
 ! R57   R(35,50)                1.3891         estimate D2E/DX2                !
 ! R58   R(35,51)                1.0822         estimate D2E/DX2                !
 ! R59   R(36,50)                1.3942         estimate D2E/DX2                !
 ! R60   R(36,52)                1.0828         estimate D2E/DX2                !
 ! R61   R(38,53)                1.3891         estimate D2E/DX2                !
 ! R62   R(38,54)                1.0821         estimate D2E/DX2                !
 ! R63   R(39,53)                1.3941         estimate D2E/DX2                !
 ! R64   R(39,55)                1.0828         estimate D2E/DX2                !
 ! R65   R(41,56)                1.0833         estimate D2E/DX2                !
 ! R66   R(43,57)                1.0833         estimate D2E/DX2                !
 ! R67   R(46,58)                1.0833         estimate D2E/DX2                !
 ! R68   R(50,59)                1.0833         estimate D2E/DX2                !
 ! R69   R(53,60)                1.0833         estimate D2E/DX2                !
 ! A1    A(2,1,6)              118.5225         estimate D2E/DX2                !
 ! A2    A(2,1,61)             116.4859         estimate D2E/DX2                !
 ! A3    A(6,1,61)             124.9815         estimate D2E/DX2                !
 ! A4    A(1,2,3)              121.1182         estimate D2E/DX2                !
 ! A5    A(1,2,16)             114.7604         estimate D2E/DX2                !
 ! A6    A(3,2,16)             124.1211         estimate D2E/DX2                !
 ! A7    A(2,3,4)              119.8531         estimate D2E/DX2                !
 ! A8    A(2,3,7)              120.1315         estimate D2E/DX2                !
 ! A9    A(4,3,7)              120.0153         estimate D2E/DX2                !
 ! A10   A(3,4,5)              118.7518         estimate D2E/DX2                !
 ! A11   A(3,4,8)              120.329          estimate D2E/DX2                !
 ! A12   A(5,4,8)              120.9193         estimate D2E/DX2                !
 ! A13   A(4,5,6)              119.0521         estimate D2E/DX2                !
 ! A14   A(4,5,9)              121.6107         estimate D2E/DX2                !
 ! A15   A(6,5,9)              119.3372         estimate D2E/DX2                !
 ! A16   A(1,6,5)              122.7021         estimate D2E/DX2                !
 ! A17   A(1,6,10)             115.8212         estimate D2E/DX2                !
 ! A18   A(5,6,10)             121.4756         estimate D2E/DX2                !
 ! A19   A(17,11,18)           118.5313         estimate D2E/DX2                !
 ! A20   A(17,11,61)           116.4968         estimate D2E/DX2                !
 ! A21   A(18,11,61)           124.9567         estimate D2E/DX2                !
 ! A22   A(19,12,20)           118.5237         estimate D2E/DX2                !
 ! A23   A(19,12,61)           116.4645         estimate D2E/DX2                !
 ! A24   A(20,12,61)           125.0007         estimate D2E/DX2                !
 ! A25   A(16,13,21)           118.5236         estimate D2E/DX2                !
 ! A26   A(16,13,61)           116.4646         estimate D2E/DX2                !
 ! A27   A(21,13,61)           125.0007         estimate D2E/DX2                !
 ! A28   A(22,14,23)           118.5224         estimate D2E/DX2                !
 ! A29   A(22,14,61)           116.4859         estimate D2E/DX2                !
 ! A30   A(23,14,61)           124.9816         estimate D2E/DX2                !
 ! A31   A(24,15,25)           118.5313         estimate D2E/DX2                !
 ! A32   A(24,15,61)           116.4968         estimate D2E/DX2                !
 ! A33   A(25,15,61)           124.9567         estimate D2E/DX2                !
 ! A34   A(2,16,13)            114.7801         estimate D2E/DX2                !
 ! A35   A(2,16,26)            124.1075         estimate D2E/DX2                !
 ! A36   A(13,16,26)           121.112          estimate D2E/DX2                !
 ! A37   A(11,17,24)           114.7569         estimate D2E/DX2                !
 ! A38   A(11,17,27)           121.1014         estimate D2E/DX2                !
 ! A39   A(24,17,27)           124.1415         estimate D2E/DX2                !
 ! A40   A(11,18,28)           122.7065         estimate D2E/DX2                !
 ! A41   A(11,18,29)           115.7838         estimate D2E/DX2                !
 ! A42   A(28,18,29)           121.5088         estimate D2E/DX2                !
 ! A43   A(12,19,22)           114.7802         estimate D2E/DX2                !
 ! A44   A(12,19,30)           121.112          estimate D2E/DX2                !
 ! A45   A(22,19,30)           124.1074         estimate D2E/DX2                !
 ! A46   A(12,20,31)           122.702          estimate D2E/DX2                !
 ! A47   A(12,20,32)           115.833          estimate D2E/DX2                !
 ! A48   A(31,20,32)           121.4642         estimate D2E/DX2                !
 ! A49   A(13,21,33)           122.702          estimate D2E/DX2                !
 ! A50   A(13,21,34)           115.8329         estimate D2E/DX2                !
 ! A51   A(33,21,34)           121.4642         estimate D2E/DX2                !
 ! A52   A(14,22,19)           114.7603         estimate D2E/DX2                !
 ! A53   A(14,22,35)           121.1183         estimate D2E/DX2                !
 ! A54   A(19,22,35)           124.1212         estimate D2E/DX2                !
 ! A55   A(14,23,36)           122.7022         estimate D2E/DX2                !
 ! A56   A(14,23,37)           115.8212         estimate D2E/DX2                !
 ! A57   A(36,23,37)           121.4756         estimate D2E/DX2                !
 ! A58   A(15,24,17)           114.7569         estimate D2E/DX2                !
 ! A59   A(15,24,38)           121.1015         estimate D2E/DX2                !
 ! A60   A(17,24,38)           124.1414         estimate D2E/DX2                !
 ! A61   A(15,25,39)           122.7065         estimate D2E/DX2                !
 ! A62   A(15,25,40)           115.7839         estimate D2E/DX2                !
 ! A63   A(39,25,40)           121.5088         estimate D2E/DX2                !
 ! A64   A(16,26,41)           119.8658         estimate D2E/DX2                !
 ! A65   A(16,26,42)           120.1154         estimate D2E/DX2                !
 ! A66   A(41,26,42)           120.0187         estimate D2E/DX2                !
 ! A67   A(17,27,43)           119.8644         estimate D2E/DX2                !
 ! A68   A(17,27,44)           120.1525         estimate D2E/DX2                !
 ! A69   A(43,27,44)           119.983          estimate D2E/DX2                !
 ! A70   A(18,28,43)           119.043          estimate D2E/DX2                !
 ! A71   A(18,28,45)           119.3512         estimate D2E/DX2                !
 ! A72   A(43,28,45)           121.6058         estimate D2E/DX2                !
 ! A73   A(19,30,46)           119.8658         estimate D2E/DX2                !
 ! A74   A(19,30,47)           120.1154         estimate D2E/DX2                !
 ! A75   A(46,30,47)           120.0187         estimate D2E/DX2                !
 ! A76   A(20,31,46)           119.0516         estimate D2E/DX2                !
 ! A77   A(20,31,48)           119.351          estimate D2E/DX2                !
 ! A78   A(46,31,48)           121.5974         estimate D2E/DX2                !
 ! A79   A(21,33,41)           119.0517         estimate D2E/DX2                !
 ! A80   A(21,33,49)           119.3509         estimate D2E/DX2                !
 ! A81   A(41,33,49)           121.5974         estimate D2E/DX2                !
 ! A82   A(22,35,50)           119.8531         estimate D2E/DX2                !
 ! A83   A(22,35,51)           120.1315         estimate D2E/DX2                !
 ! A84   A(50,35,51)           120.0153         estimate D2E/DX2                !
 ! A85   A(23,36,50)           119.052          estimate D2E/DX2                !
 ! A86   A(23,36,52)           119.3372         estimate D2E/DX2                !
 ! A87   A(50,36,52)           121.6107         estimate D2E/DX2                !
 ! A88   A(24,38,53)           119.8643         estimate D2E/DX2                !
 ! A89   A(24,38,54)           120.1526         estimate D2E/DX2                !
 ! A90   A(53,38,54)           119.983          estimate D2E/DX2                !
 ! A91   A(25,39,53)           119.043          estimate D2E/DX2                !
 ! A92   A(25,39,55)           119.3512         estimate D2E/DX2                !
 ! A93   A(53,39,55)           121.6058         estimate D2E/DX2                !
 ! A94   A(26,41,33)           118.7447         estimate D2E/DX2                !
 ! A95   A(26,41,56)           120.3152         estimate D2E/DX2                !
 ! A96   A(33,41,56)           120.9401         estimate D2E/DX2                !
 ! A97   A(27,43,28)           118.7532         estimate D2E/DX2                !
 ! A98   A(27,43,57)           120.316          estimate D2E/DX2                !
 ! A99   A(28,43,57)           120.9308         estimate D2E/DX2                !
 ! A100  A(30,46,31)           118.7447         estimate D2E/DX2                !
 ! A101  A(30,46,58)           120.3152         estimate D2E/DX2                !
 ! A102  A(31,46,58)           120.9401         estimate D2E/DX2                !
 ! A103  A(35,50,36)           118.7518         estimate D2E/DX2                !
 ! A104  A(35,50,59)           120.329          estimate D2E/DX2                !
 ! A105  A(36,50,59)           120.9192         estimate D2E/DX2                !
 ! A106  A(38,53,39)           118.7533         estimate D2E/DX2                !
 ! A107  A(38,53,60)           120.3159         estimate D2E/DX2                !
 ! A108  A(39,53,60)           120.9308         estimate D2E/DX2                !
 ! A109  A(1,61,11)             97.3943         estimate D2E/DX2                !
 ! A110  A(1,61,12)             97.3674         estimate D2E/DX2                !
 ! A111  A(1,61,13)             77.4921         estimate D2E/DX2                !
 ! A112  A(1,61,14)             88.0941         estimate D2E/DX2                !
 ! A113  A(11,61,12)            97.5048         estimate D2E/DX2                !
 ! A114  A(11,61,13)            88.0095         estimate D2E/DX2                !
 ! A115  A(11,61,15)            77.4685         estimate D2E/DX2                !
 ! A116  A(12,61,14)            77.4921         estimate D2E/DX2                !
 ! A117  A(12,61,15)            88.0095         estimate D2E/DX2                !
 ! A118  A(13,61,14)            97.3674         estimate D2E/DX2                !
 ! A119  A(13,61,15)            97.5048         estimate D2E/DX2                !
 ! A120  A(14,61,15)            97.3943         estimate D2E/DX2                !
 ! A121  L(1,61,15,11,-1)      174.8628         estimate D2E/DX2                !
 ! A122  L(11,61,14,1,-1)      185.4885         estimate D2E/DX2                !
 ! A123  L(12,61,13,1,-1)      174.8595         estimate D2E/DX2                !
 ! A124  L(1,61,15,11,-2)      184.7466         estimate D2E/DX2                !
 ! A125  L(11,61,14,1,-2)      184.2709         estimate D2E/DX2                !
 ! A126  L(12,61,13,1,-2)      184.895          estimate D2E/DX2                !
 ! D1    D(6,1,2,3)              0.1803         estimate D2E/DX2                !
 ! D2    D(6,1,2,16)          -179.9876         estimate D2E/DX2                !
 ! D3    D(61,1,2,3)           179.0835         estimate D2E/DX2                !
 ! D4    D(61,1,2,16)           -1.0844         estimate D2E/DX2                !
 ! D5    D(2,1,6,5)             -0.1609         estimate D2E/DX2                !
 ! D6    D(2,1,6,10)          -179.7901         estimate D2E/DX2                !
 ! D7    D(61,1,6,5)          -178.9627         estimate D2E/DX2                !
 ! D8    D(61,1,6,10)            1.4081         estimate D2E/DX2                !
 ! D9    D(2,1,61,11)           86.6439         estimate D2E/DX2                !
 ! D10   D(2,1,61,12)         -174.7534         estimate D2E/DX2                !
 ! D11   D(2,1,61,13)            0.3516         estimate D2E/DX2                !
 ! D12   D(2,1,61,14)          -97.627          estimate D2E/DX2                !
 ! D13   D(6,1,61,11)          -94.5322         estimate D2E/DX2                !
 ! D14   D(6,1,61,12)            4.0704         estimate D2E/DX2                !
 ! D15   D(6,1,61,13)          179.1754         estimate D2E/DX2                !
 ! D16   D(6,1,61,14)           81.1969         estimate D2E/DX2                !
 ! D17   D(1,2,3,4)             -0.1141         estimate D2E/DX2                !
 ! D18   D(1,2,3,7)           -179.9959         estimate D2E/DX2                !
 ! D19   D(16,2,3,4)          -179.93           estimate D2E/DX2                !
 ! D20   D(16,2,3,7)             0.1883         estimate D2E/DX2                !
 ! D21   D(1,2,16,13)            1.4939         estimate D2E/DX2                !
 ! D22   D(1,2,16,26)         -178.7501         estimate D2E/DX2                !
 ! D23   D(3,2,16,13)         -178.6797         estimate D2E/DX2                !
 ! D24   D(3,2,16,26)            1.0763         estimate D2E/DX2                !
 ! D25   D(2,3,4,5)              0.0226         estimate D2E/DX2                !
 ! D26   D(2,3,4,8)           -179.9651         estimate D2E/DX2                !
 ! D27   D(7,3,4,5)            179.9045         estimate D2E/DX2                !
 ! D28   D(7,3,4,8)             -0.0832         estimate D2E/DX2                !
 ! D29   D(3,4,5,6)             -0.0013         estimate D2E/DX2                !
 ! D30   D(3,4,5,9)           -179.9862         estimate D2E/DX2                !
 ! D31   D(8,4,5,6)            179.9863         estimate D2E/DX2                !
 ! D32   D(8,4,5,9)              0.0015         estimate D2E/DX2                !
 ! D33   D(4,5,6,1)              0.0724         estimate D2E/DX2                !
 ! D34   D(4,5,6,10)           179.681          estimate D2E/DX2                !
 ! D35   D(9,5,6,1)           -179.9424         estimate D2E/DX2                !
 ! D36   D(9,5,6,10)            -0.3338         estimate D2E/DX2                !
 ! D37   D(18,11,17,24)        179.9745         estimate D2E/DX2                !
 ! D38   D(18,11,17,27)          0.1306         estimate D2E/DX2                !
 ! D39   D(61,11,17,24)         -1.3738         estimate D2E/DX2                !
 ! D40   D(61,11,17,27)        178.7823         estimate D2E/DX2                !
 ! D41   D(17,11,18,28)         -0.1224         estimate D2E/DX2                !
 ! D42   D(17,11,18,29)       -179.7927         estimate D2E/DX2                !
 ! D43   D(61,11,18,28)       -178.6502         estimate D2E/DX2                !
 ! D44   D(61,11,18,29)          1.6795         estimate D2E/DX2                !
 ! D45   D(17,11,61,1)        -174.7444         estimate D2E/DX2                !
 ! D46   D(17,11,61,12)         86.7723         estimate D2E/DX2                !
 ! D47   D(17,11,61,13)        -97.6316         estimate D2E/DX2                !
 ! D48   D(17,11,61,15)          0.509          estimate D2E/DX2                !
 ! D49   D(18,11,61,1)           3.8103         estimate D2E/DX2                !
 ! D50   D(18,11,61,12)        -94.6729         estimate D2E/DX2                !
 ! D51   D(18,11,61,13)         80.9231         estimate D2E/DX2                !
 ! D52   D(18,11,61,15)        179.0637         estimate D2E/DX2                !
 ! D53   D(20,12,19,22)        179.9394         estimate D2E/DX2                !
 ! D54   D(20,12,19,30)          0.1754         estimate D2E/DX2                !
 ! D55   D(61,12,19,22)         -1.2108         estimate D2E/DX2                !
 ! D56   D(61,12,19,30)        179.0252         estimate D2E/DX2                !
 ! D57   D(19,12,20,31)         -0.183          estimate D2E/DX2                !
 ! D58   D(19,12,20,32)       -179.8445         estimate D2E/DX2                !
 ! D59   D(61,12,20,31)       -178.926          estimate D2E/DX2                !
 ! D60   D(61,12,20,32)          1.4125         estimate D2E/DX2                !
 ! D61   D(19,12,61,1)          86.8847         estimate D2E/DX2                !
 ! D62   D(19,12,61,11)       -174.6087         estimate D2E/DX2                !
 ! D63   D(19,12,61,14)          0.4986         estimate D2E/DX2                !
 ! D64   D(19,12,61,15)        -97.527          estimate D2E/DX2                !
 ! D65   D(20,12,61,1)         -94.349          estimate D2E/DX2                !
 ! D66   D(20,12,61,11)          4.1576         estimate D2E/DX2                !
 ! D67   D(20,12,61,14)        179.2649         estimate D2E/DX2                !
 ! D68   D(20,12,61,15)         81.2393         estimate D2E/DX2                !
 ! D69   D(21,13,16,2)         179.9394         estimate D2E/DX2                !
 ! D70   D(21,13,16,26)          0.1754         estimate D2E/DX2                !
 ! D71   D(61,13,16,2)          -1.2108         estimate D2E/DX2                !
 ! D72   D(61,13,16,26)        179.0252         estimate D2E/DX2                !
 ! D73   D(16,13,21,33)         -0.183          estimate D2E/DX2                !
 ! D74   D(16,13,21,34)       -179.8444         estimate D2E/DX2                !
 ! D75   D(61,13,21,33)       -178.926          estimate D2E/DX2                !
 ! D76   D(61,13,21,34)          1.4126         estimate D2E/DX2                !
 ! D77   D(16,13,61,1)           0.4986         estimate D2E/DX2                !
 ! D78   D(16,13,61,11)        -97.527          estimate D2E/DX2                !
 ! D79   D(16,13,61,14)         86.8847         estimate D2E/DX2                !
 ! D80   D(16,13,61,15)       -174.6087         estimate D2E/DX2                !
 ! D81   D(21,13,61,1)         179.2648         estimate D2E/DX2                !
 ! D82   D(21,13,61,11)         81.2392         estimate D2E/DX2                !
 ! D83   D(21,13,61,14)        -94.3491         estimate D2E/DX2                !
 ! D84   D(21,13,61,15)          4.1575         estimate D2E/DX2                !
 ! D85   D(23,14,22,19)       -179.9876         estimate D2E/DX2                !
 ! D86   D(23,14,22,35)          0.1802         estimate D2E/DX2                !
 ! D87   D(61,14,22,19)         -1.0843         estimate D2E/DX2                !
 ! D88   D(61,14,22,35)        179.0835         estimate D2E/DX2                !
 ! D89   D(22,14,23,36)         -0.1609         estimate D2E/DX2                !
 ! D90   D(22,14,23,37)       -179.79           estimate D2E/DX2                !
 ! D91   D(61,14,23,36)       -178.9628         estimate D2E/DX2                !
 ! D92   D(61,14,23,37)          1.4081         estimate D2E/DX2                !
 ! D93   D(22,14,61,1)         -97.627          estimate D2E/DX2                !
 ! D94   D(22,14,61,12)          0.3516         estimate D2E/DX2                !
 ! D95   D(22,14,61,13)       -174.7535         estimate D2E/DX2                !
 ! D96   D(22,14,61,15)         86.6439         estimate D2E/DX2                !
 ! D97   D(23,14,61,1)          81.1969         estimate D2E/DX2                !
 ! D98   D(23,14,61,12)        179.1755         estimate D2E/DX2                !
 ! D99   D(23,14,61,13)          4.0704         estimate D2E/DX2                !
 ! D100  D(23,14,61,15)        -94.5322         estimate D2E/DX2                !
 ! D101  D(25,15,24,17)        179.9745         estimate D2E/DX2                !
 ! D102  D(25,15,24,38)          0.1307         estimate D2E/DX2                !
 ! D103  D(61,15,24,17)         -1.3738         estimate D2E/DX2                !
 ! D104  D(61,15,24,38)        178.7824         estimate D2E/DX2                !
 ! D105  D(24,15,25,39)         -0.1225         estimate D2E/DX2                !
 ! D106  D(24,15,25,40)       -179.7928         estimate D2E/DX2                !
 ! D107  D(61,15,25,39)       -178.6501         estimate D2E/DX2                !
 ! D108  D(61,15,25,40)          1.6795         estimate D2E/DX2                !
 ! D109  D(24,15,61,11)          0.509          estimate D2E/DX2                !
 ! D110  D(24,15,61,12)        -97.6316         estimate D2E/DX2                !
 ! D111  D(24,15,61,13)         86.7724         estimate D2E/DX2                !
 ! D112  D(24,15,61,14)       -174.7444         estimate D2E/DX2                !
 ! D113  D(25,15,61,11)        179.0637         estimate D2E/DX2                !
 ! D114  D(25,15,61,12)         80.9231         estimate D2E/DX2                !
 ! D115  D(25,15,61,13)        -94.6729         estimate D2E/DX2                !
 ! D116  D(25,15,61,14)          3.8103         estimate D2E/DX2                !
 ! D117  D(2,16,26,41)        -179.8345         estimate D2E/DX2                !
 ! D118  D(2,16,26,42)           0.2828         estimate D2E/DX2                !
 ! D119  D(13,16,26,41)         -0.0933         estimate D2E/DX2                !
 ! D120  D(13,16,26,42)       -179.976          estimate D2E/DX2                !
 ! D121  D(11,17,24,15)          1.7879         estimate D2E/DX2                !
 ! D122  D(11,17,24,38)       -178.3737         estimate D2E/DX2                !
 ! D123  D(27,17,24,15)       -178.3736         estimate D2E/DX2                !
 ! D124  D(27,17,24,38)          1.4648         estimate D2E/DX2                !
 ! D125  D(11,17,27,43)         -0.086          estimate D2E/DX2                !
 ! D126  D(11,17,27,44)       -179.9481         estimate D2E/DX2                !
 ! D127  D(24,17,27,43)       -179.9147         estimate D2E/DX2                !
 ! D128  D(24,17,27,44)          0.2231         estimate D2E/DX2                !
 ! D129  D(11,18,28,43)          0.0673         estimate D2E/DX2                !
 ! D130  D(11,18,28,45)       -179.9692         estimate D2E/DX2                !
 ! D131  D(29,18,28,43)        179.7191         estimate D2E/DX2                !
 ! D132  D(29,18,28,45)         -0.3174         estimate D2E/DX2                !
 ! D133  D(12,19,22,14)          1.4939         estimate D2E/DX2                !
 ! D134  D(12,19,22,35)       -178.6796         estimate D2E/DX2                !
 ! D135  D(30,19,22,14)       -178.7501         estimate D2E/DX2                !
 ! D136  D(30,19,22,35)          1.0763         estimate D2E/DX2                !
 ! D137  D(12,19,30,46)         -0.0933         estimate D2E/DX2                !
 ! D138  D(12,19,30,47)       -179.976          estimate D2E/DX2                !
 ! D139  D(22,19,30,46)       -179.8345         estimate D2E/DX2                !
 ! D140  D(22,19,30,47)          0.2828         estimate D2E/DX2                !
 ! D141  D(12,20,31,46)          0.1049         estimate D2E/DX2                !
 ! D142  D(12,20,31,48)       -179.9249         estimate D2E/DX2                !
 ! D143  D(32,20,31,46)        179.7477         estimate D2E/DX2                !
 ! D144  D(32,20,31,48)         -0.282          estimate D2E/DX2                !
 ! D145  D(13,21,33,41)          0.1049         estimate D2E/DX2                !
 ! D146  D(13,21,33,49)       -179.9248         estimate D2E/DX2                !
 ! D147  D(34,21,33,41)        179.7477         estimate D2E/DX2                !
 ! D148  D(34,21,33,49)         -0.2821         estimate D2E/DX2                !
 ! D149  D(14,22,35,50)         -0.1141         estimate D2E/DX2                !
 ! D150  D(14,22,35,51)       -179.9958         estimate D2E/DX2                !
 ! D151  D(19,22,35,50)       -179.9299         estimate D2E/DX2                !
 ! D152  D(19,22,35,51)          0.1883         estimate D2E/DX2                !
 ! D153  D(14,23,36,50)          0.0724         estimate D2E/DX2                !
 ! D154  D(14,23,36,52)       -179.9425         estimate D2E/DX2                !
 ! D155  D(37,23,36,50)        179.681          estimate D2E/DX2                !
 ! D156  D(37,23,36,52)         -0.3339         estimate D2E/DX2                !
 ! D157  D(15,24,38,53)         -0.0861         estimate D2E/DX2                !
 ! D158  D(15,24,38,54)       -179.9482         estimate D2E/DX2                !
 ! D159  D(17,24,38,53)       -179.9147         estimate D2E/DX2                !
 ! D160  D(17,24,38,54)          0.2232         estimate D2E/DX2                !
 ! D161  D(15,25,39,53)          0.0673         estimate D2E/DX2                !
 ! D162  D(15,25,39,55)       -179.9692         estimate D2E/DX2                !
 ! D163  D(40,25,39,53)        179.7192         estimate D2E/DX2                !
 ! D164  D(40,25,39,55)         -0.3174         estimate D2E/DX2                !
 ! D165  D(16,26,41,33)          0.0125         estimate D2E/DX2                !
 ! D166  D(16,26,41,56)       -179.9672         estimate D2E/DX2                !
 ! D167  D(42,26,41,33)        179.8954         estimate D2E/DX2                !
 ! D168  D(42,26,41,56)         -0.0844         estimate D2E/DX2                !
 ! D169  D(17,27,43,28)          0.0286         estimate D2E/DX2                !
 ! D170  D(17,27,43,57)       -179.9338         estimate D2E/DX2                !
 ! D171  D(44,27,43,28)        179.891          estimate D2E/DX2                !
 ! D172  D(44,27,43,57)         -0.0714         estimate D2E/DX2                !
 ! D173  D(18,28,43,27)         -0.0186         estimate D2E/DX2                !
 ! D174  D(18,28,43,57)        179.9436         estimate D2E/DX2                !
 ! D175  D(45,28,43,27)       -179.9813         estimate D2E/DX2                !
 ! D176  D(45,28,43,57)         -0.0191         estimate D2E/DX2                !
 ! D177  D(19,30,46,31)          0.0125         estimate D2E/DX2                !
 ! D178  D(19,30,46,58)       -179.9672         estimate D2E/DX2                !
 ! D179  D(47,30,46,31)        179.8954         estimate D2E/DX2                !
 ! D180  D(47,30,46,58)         -0.0844         estimate D2E/DX2                !
 ! D181  D(20,31,46,30)         -0.0167         estimate D2E/DX2                !
 ! D182  D(20,31,46,58)        179.9629         estimate D2E/DX2                !
 ! D183  D(48,31,46,30)       -179.9863         estimate D2E/DX2                !
 ! D184  D(48,31,46,58)         -0.0067         estimate D2E/DX2                !
 ! D185  D(21,33,41,26)         -0.0168         estimate D2E/DX2                !
 ! D186  D(21,33,41,56)        179.9629         estimate D2E/DX2                !
 ! D187  D(49,33,41,26)       -179.9863         estimate D2E/DX2                !
 ! D188  D(49,33,41,56)         -0.0067         estimate D2E/DX2                !
 ! D189  D(22,35,50,36)          0.0226         estimate D2E/DX2                !
 ! D190  D(22,35,50,59)       -179.9651         estimate D2E/DX2                !
 ! D191  D(51,35,50,36)        179.9045         estimate D2E/DX2                !
 ! D192  D(51,35,50,59)         -0.0832         estimate D2E/DX2                !
 ! D193  D(23,36,50,35)         -0.0014         estimate D2E/DX2                !
 ! D194  D(23,36,50,59)        179.9863         estimate D2E/DX2                !
 ! D195  D(52,36,50,35)       -179.9861         estimate D2E/DX2                !
 ! D196  D(52,36,50,59)          0.0016         estimate D2E/DX2                !
 ! D197  D(24,38,53,39)          0.0287         estimate D2E/DX2                !
 ! D198  D(24,38,53,60)       -179.9338         estimate D2E/DX2                !
 ! D199  D(54,38,53,39)        179.891          estimate D2E/DX2                !
 ! D200  D(54,38,53,60)         -0.0714         estimate D2E/DX2                !
 ! D201  D(25,39,53,38)         -0.0186         estimate D2E/DX2                !
 ! D202  D(25,39,53,60)        179.9436         estimate D2E/DX2                !
 ! D203  D(55,39,53,38)       -179.9812         estimate D2E/DX2                !
 ! D204  D(55,39,53,60)         -0.019          estimate D2E/DX2                !
 --------------------------------------------------------------------------------
 Trust Radius=3.00D-01 FncErr=5.00D-06 GrdErr=5.00D-06 EigMax=2.50D+02 EigMin=1.00D-04
 Number of steps in this run=    366 maximum allowed number of steps=    366.
 GradGradGradGradGradGradGradGradGradGradGradGradGradGradGradGradGradGrad

 Leave Link  103 at Thu Oct 17 16:05:40 2024, MaxMem=  6442450944 cpu:               0.4 elap:               0.1
 (Enter /usr/local/apps/g16.a03/g16/l202.exe)
 Symmetry turned off by external request.
 Stoichiometry    C30H24N6Os
                          Input orientation:                          
 ---------------------------------------------------------------------
 Center     Atomic      Atomic             Coordinates (Angstroms)
 Number     Number       Type             X           Y           Z
 ---------------------------------------------------------------------
      1          7           0        1.500085    1.012170   -1.039668
      2          6           0        1.825690    2.259365   -0.580628
      3          6           0        2.828460    3.014052   -1.191894
      4          6           0        3.514338    2.497361   -2.283775
      5          6           0        3.179173    1.225284   -2.745520
      6          6           0        2.175176    0.518651   -2.102264
      7          1           0        3.073032    3.998785   -0.815540
      8          1           0        4.294266    3.076104   -2.763647
      9          1           0        3.683864    0.777746   -3.592562
     10          1           0        1.880163   -0.468600   -2.430570
     11          7           0       -1.628219    0.794235   -1.036800
     12          7           0        0.128272   -1.806990   -1.036836
     13          7           0        0.128272    1.806989    1.036836
     14          7           0        1.500085   -1.012170    1.039668
     15          7           0       -1.628219   -0.794234    1.036800
     16          6           0        1.043522    2.712374    0.573272
     17          6           0       -2.870609    0.454281   -0.575133
     18          6           0       -1.539229    1.629010   -2.096744
     19          6           0        1.043521   -2.712374   -0.573271
     20          6           0       -0.634144   -2.146574   -2.100640
     21          6           0       -0.634144    2.146574    2.100640
     22          6           0        1.825690   -2.259366    0.580629
     23          6           0        2.175176   -0.518652    2.102264
     24          6           0       -2.870609   -0.454281    0.575133
     25          6           0       -1.539229   -1.629009    2.096744
     26          6           0        1.195987    3.959583    1.181253
     27          6           0       -4.025883    0.951490   -1.180787
     28          6           0       -2.653593    2.151069   -2.734528
     29          1           0       -0.536874    1.865174   -2.426613
     30          6           0        1.195986   -3.959584   -1.181253
     31          6           0       -0.523313   -3.370834   -2.741114
     32          1           0       -1.340728   -1.398060   -2.432111
     33          6           0       -0.523312    3.370834    2.741114
     34          1           0       -1.340727    1.398060    2.432111
     35          6           0        2.828460   -3.014053    1.191894
     36          6           0        3.179173   -1.225285    2.745521
     37          1           0        1.880163    0.468599    2.430570
     38          6           0       -4.025884   -0.951489    1.180787
     39          6           0       -2.653594   -2.151068    2.734528
     40          1           0       -0.536875   -1.865174    2.426613
     41          6           0        0.408491    4.297008    2.274646
     42          1           0        1.924567    4.663462    0.801067
     43          6           0       -3.922318    1.807641   -2.269728
     44          1           0       -5.000746    0.673208   -0.802488
     45          1           0       -2.519223    2.814794   -3.579468
     46          6           0        0.408490   -4.297008   -2.274646
     47          1           0        1.924566   -4.663463   -0.801067
     48          1           0       -1.160913   -3.585615   -3.589565
     49          1           0       -1.160912    3.585615    3.589565
     50          6           0        3.514338   -2.497362    2.283775
     51          1           0        3.073031   -3.998785    0.815540
     52          1           0        3.683864   -0.777747    3.592562
     53          6           0       -3.922318   -1.807640    2.269728
     54          1           0       -5.000747   -0.673207    0.802488
     55          1           0       -2.519224   -2.814794    3.579468
     56          1           0        0.520357    5.263141    2.751733
     57          1           0       -4.814015    2.198651   -2.744644
     58          1           0        0.520356   -5.263141   -2.751733
     59          1           0        4.294266   -3.076105    2.763647
     60          1           0       -4.814015   -2.198650    2.744644
     61         76           0        0.000000    0.000000    0.000000
 ---------------------------------------------------------------------
 Rotational constants (GHZ):           0.1217712           0.1216117           0.0993647
 Leave Link  202 at Thu Oct 17 16:05:40 2024, MaxMem=  6442450944 cpu:               0.1 elap:               0.0
 (Enter /usr/local/apps/g16.a03/g16/l301.exe)
 General basis read from cards:  (5D, 7F)
 Centers:       2      3      4      5      6     16     17     18     19     20
 Centers:      21     22     23     24     25     26     27     28     30     31
 Centers:      33     35     36     38     39     41     43     46     50     53
 Centers:       7      8      9     10     29     32     34     37     40     42
 Centers:      44     45     47     48     49     51     52     54     55     56
 Centers:      57     58     59     60      1     11     12     13     14     15
 6-311G*
 ****
 Centers:      61
 SDD
 ****
 ======================================================================================================
                                       Pseudopotential Parameters
 ======================================================================================================
  Center     Atomic      Valence      Angular      Power
  Number     Number     Electrons     Momentum     of R      Exponent        Coefficient   SO-Coeffient
 ======================================================================================================
    1          7
                                   No pseudopotential on this center.
    2          6
                                   No pseudopotential on this center.
    3          6
                                   No pseudopotential on this center.
    4          6
                                   No pseudopotential on this center.
    5          6
                                   No pseudopotential on this center.
    6          6
                                   No pseudopotential on this center.
    7          1
                                   No pseudopotential on this center.
    8          1
                                   No pseudopotential on this center.
    9          1
                                   No pseudopotential on this center.
   10          1
                                   No pseudopotential on this center.
   11          7
                                   No pseudopotential on this center.
   12          7
                                   No pseudopotential on this center.
   13          7
                                   No pseudopotential on this center.
   14          7
                                   No pseudopotential on this center.
   15          7
                                   No pseudopotential on this center.
   16          6
                                   No pseudopotential on this center.
   17          6
                                   No pseudopotential on this center.
   18          6
                                   No pseudopotential on this center.
   19          6
                                   No pseudopotential on this center.
   20          6
                                   No pseudopotential on this center.
   21          6
                                   No pseudopotential on this center.
   22          6
                                   No pseudopotential on this center.
   23          6
                                   No pseudopotential on this center.
   24          6
                                   No pseudopotential on this center.
   25          6
                                   No pseudopotential on this center.
   26          6
                                   No pseudopotential on this center.
   27          6
                                   No pseudopotential on this center.
   28          6
                                   No pseudopotential on this center.
   29          1
                                   No pseudopotential on this center.
   30          6
                                   No pseudopotential on this center.
   31          6
                                   No pseudopotential on this center.
   32          1
                                   No pseudopotential on this center.
   33          6
                                   No pseudopotential on this center.
   34          1
                                   No pseudopotential on this center.
   35          6
                                   No pseudopotential on this center.
   36          6
                                   No pseudopotential on this center.
   37          1
                                   No pseudopotential on this center.
   38          6
                                   No pseudopotential on this center.
   39          6
                                   No pseudopotential on this center.
   40          1
                                   No pseudopotential on this center.
   41          6
                                   No pseudopotential on this center.
   42          1
                                   No pseudopotential on this center.
   43          6
                                   No pseudopotential on this center.
   44          1
                                   No pseudopotential on this center.
   45          1
                                   No pseudopotential on this center.
   46          6
                                   No pseudopotential on this center.
   47          1
                                   No pseudopotential on this center.
   48          1
                                   No pseudopotential on this center.
   49          1
                                   No pseudopotential on this center.
   50          6
                                   No pseudopotential on this center.
   51          1
                                   No pseudopotential on this center.
   52          1
                                   No pseudopotential on this center.
   53          6
                                   No pseudopotential on this center.
   54          1
                                   No pseudopotential on this center.
   55          1
                                   No pseudopotential on this center.
   56          1
                                   No pseudopotential on this center.
   57          1
                                   No pseudopotential on this center.
   58          1
                                   No pseudopotential on this center.
   59          1
                                   No pseudopotential on this center.
   60          1
                                   No pseudopotential on this center.
   61         76           16
                                      H and up 
                                                     2        1.0000000        0.00000000    0.00000000
                                      S - H
                                                     2       13.8757540      885.40571900    0.00000000
                                                     2        6.9378770       25.96704000    0.00000000
                                      P - H
                                                     2       10.1937930      320.08390200    0.00000000
                                                     2        5.0968960       26.14876500    0.00000000
                                      D - H
                                                     2        7.0992380      115.04484300    0.00000000
                                                     2        3.5496190       13.62257500    0.00000000
                                      F - H
                                                     2        2.7670750       18.90945700    0.00000000
                                      G - H
                                                     2        4.3499050      -19.02759500    0.00000000
 ======================================================================================================
 Ernie: Thresh=  0.10000D-02 Tol=  0.10000D-05 Strict=F.
   756 basis functions,  1337 primitive gaussians,   795 cartesian basis functions
   130 alpha electrons      130 beta electrons
       nuclear repulsion energy      4382.6251982603 Hartrees.
 IExCor= 2523 DFT=T Ex+Corr=TPSSh ExCW=0 ScaHFX=  0.100000
 ScaDFX=  0.900000  0.900000  1.000000  1.000000 ScalE2=  1.000000  1.000000
 IRadAn=      5 IRanWt=     -1 IRanGd=            0 ICorTp=0 IEmpDi=  4
 NAtoms=   61 NActive=   61 NUniq=   61 SFac= 1.00D+00 NAtFMM=   60 NAOKFM=T Big=T
 Integral buffers will be    131072 words long.
 Regular integral format.
 Two-electron integral symmetry is turned off.
 ------------------------------------------------------------------------------
 Polarizable Continuum Model (PCM)
 =================================
 Model                : PCM.
 Atomic radii         : UFF (Universal Force Field).
 Polarization charges : Total charges.
 Charge compensation  : None.
 Solution method      : On-the-fly selection.
 Cavity type          : Scaled VdW (van der Waals Surface) (Alpha=1.100).
 Cavity algorithm     : GePol (No added spheres)
                        Default sphere list used, NSphG=   61.
                        Lebedev-Laikov grids with approx.  5.0 points / Ang**2.
                        Smoothing algorithm: York/Karplus (Gamma=1.0000).
                        Polarization charges: spherical gaussians, with
                                              point-specific exponents (IZeta= 3).
                        Self-potential: point-specific (ISelfS= 7).
                        Self-field    : sphere-specific E.n sum rule (ISelfD= 2).
 1st derivatives      : Analytical E(r).r(x)/FMM algorithm (CHGder, D1EAlg=3).
                        Cavity 1st derivative terms included.
 Solvent              : Acetonitrile, Eps=  35.688000 Eps(inf)=   1.806874
 ------------------------------------------------------------------------------
 GePol: Number of generator spheres                  =      61
 GePol: Total number of spheres                      =      61
 GePol: Number of exposed spheres                    =      61 (100.00%)
 GePol: Number of points                             =    4134
 GePol: Average weight of points                     =       0.13
 GePol: Minimum weight of points                     =   0.60D-10
 GePol: Maximum weight of points                     =    0.20577
 GePol: Number of points with low weight             =     282
 GePol: Fraction of low-weight points (<1% of avg)   =       6.82%
 GePol: Cavity surface area                          =    531.090 Ang**2
 GePol: Cavity volume                                =    647.445 Ang**3
 Leave Link  301 at Thu Oct 17 16:05:41 2024, MaxMem=  6442450944 cpu:               2.5 elap:               0.2
 (Enter /usr/local/apps/g16.a03/g16/l302.exe)
 NPDir=0 NMtPBC=     1 NCelOv=     1 NCel=       1 NClECP=     1 NCelD=      1
         NCelK=      1 NCelE2=     1 NClLst=     1 CellRange=     0.0.
 One-electron integrals computed using PRISM.
   1 Symmetry operations used in ECPInt.
 ECPInt:  NShTT=   35511 NPrTT=  165182 LenC2=   29702 LenP2D=   77505.
 LDataN:  DoStor=T MaxTD1= 7 Len=  274
 NBasis=   756 RedAO= T EigKep=  2.11D-04  NBF=   756
 NBsUse=   756 1.00D-06 EigRej= -1.00D+00 NBFU=   756
 Precomputing XC quadrature grid using
 IXCGrd= 4 IRadAn=           5 IRanWt=          -1 IRanGd=           0 AccXCQ= 0.00D+00.
 Defaulting to unpruned grid for atomic number  76.
 Generated NRdTot=       0 NPtTot=           0 NUsed=           0 NTot=          32
 NSgBfM=   791   791   791   791   791 MxSgAt=    61 MxSgA2=    61.
 Leave Link  302 at Thu Oct 17 16:05:43 2024, MaxMem=  6442450944 cpu:              26.9 elap:               1.7
 (Enter /usr/local/apps/g16.a03/g16/l303.exe)
 DipDrv:  MaxL=1.
 Leave Link  303 at Thu Oct 17 16:05:43 2024, MaxMem=  6442450944 cpu:               2.2 elap:               0.2
 (Enter /usr/local/apps/g16.a03/g16/l308.exe)
 Leave Link  308 at Thu Oct 17 16:05:44 2024, MaxMem=  6442450944 cpu:               3.6 elap:               0.4
 (Enter /usr/local/apps/g16.a03/g16/l401.exe)
 ExpMin= 1.50D-02 ExpMax= 6.29D+03 ExpMxC= 9.49D+02 IAcc=3 IRadAn=         5 AccDes= 0.00D+00
 Harris functional with IExCor= 1009 and IRadAn=       5 diagonalized for initial guess.
 HarFok:  IExCor= 1009 AccDes= 0.00D+00 IRadAn=         5 IDoV= 1 UseB2=F ITyADJ=14
 ICtDFT=  3500011 ScaDFX=  1.000000  1.000000  1.000000  1.000000
 Defaulting to unpruned grid for atomic number  76.
 FoFCou: FMM=F IPFlag=           0 FMFlag=      100000 FMFlg1=        2001
         NFxFlg=           0 DoJE=T BraDBF=F KetDBF=T FulRan=T
         wScrn=  0.000000 ICntrl=       500 IOpCl=  0 I1Cent=   200000004 NGrid=           0
         NMat0=    1 NMatS0=      1 NMatT0=    0 NMatD0=    1 NMtDS0=    0 NMtDT0=    0
 Symmetry not used in FoFCou.
 Harris En= -1575.57636516503    
 JPrj=0 DoOrth=F DoCkMO=F.
 Leave Link  401 at Thu Oct 17 16:05:52 2024, MaxMem=  6442450944 cpu:             113.8 elap:               7.2
 (Enter /usr/local/apps/g16.a03/g16/l502.exe)
 Two-electron integral symmetry not used.
 Closed shell SCF:
 Using DIIS extrapolation, IDIIS=  1040.
 NGot=  6442450944 LenX=  6441167892 LenY=  6440535072
 Requested convergence on RMS density matrix=1.00D-08 within  32 cycles.
 Requested convergence on MAX density matrix=1.00D-06.
 Requested convergence on             energy=1.00D-06.
 No special actions if energy rises.
 Fock matrices will be formed incrementally for  20 cycles.

 Cycle   1  Pass 1  IDiag  1:
 FoFJK:  IHMeth= 1 ICntrl=       0 DoSepK=F KAlg= 0 I1Cent=           0 FoldK=F
 IRaf= 930000000 NMat=       1 IRICut=       1 DoRegI=T DoRafI=F ISym2E= 0 IDoP0=0 IntGTp=1.
 FoFCou: FMM=T IPFlag=           0 FMFlag=      100000 FMFlg1=        2001
         NFxFlg=           0 DoJE=F BraDBF=F KetDBF=F FulRan=T
         wScrn=  0.000000 ICntrl=         0 IOpCl=  0 I1Cent=           0 NGrid=           0
         NMat0=    1 NMatS0=      1 NMatT0=    0 NMatD0=    1 NMtDS0=    0 NMtDT0=    0
 Symmetry not used in FoFCou.
 FMM levels:  10  Number of levels for PrismC:   9
 Defaulting to unpruned grid for atomic number  76.
 Defaulting to unpruned grid for atomic number  76.
 Defaulting to unpruned grid for atomic number  76.
 Defaulting to unpruned grid for atomic number  76.
 Defaulting to unpruned grid for atomic number  76.
 Defaulting to unpruned grid for atomic number  76.
 Defaulting to unpruned grid for atomic number  76.
 Defaulting to unpruned grid for atomic number  76.
 Defaulting to unpruned grid for atomic number  76.
 Defaulting to unpruned grid for atomic number  76.
 Defaulting to unpruned grid for atomic number  76.
 Defaulting to unpruned grid for atomic number  76.
 Defaulting to unpruned grid for atomic number  76.
 Defaulting to unpruned grid for atomic number  76.
 Defaulting to unpruned grid for atomic number  76.
 Defaulting to unpruned grid for atomic number  76.
 Inv3:  Mode=1 IEnd=    51269868.
 Iteration    1 A*A^-1 deviation from unit magnitude is 8.66D-15 for   4133.
 Iteration    1 A*A^-1 deviation from orthogonality  is 3.23D-15 for   4133   4130.
 Iteration    1 A^-1*A deviation from unit magnitude is 8.66D-15 for   4133.
 Iteration    1 A^-1*A deviation from orthogonality  is 2.44D-15 for   2818    757.
 E= -1575.66496123674    
 DIIS: error= 5.81D-02 at cycle   1 NSaved=   1.
 NSaved= 1 IEnMin= 1 EnMin= -1575.66496123674     IErMin= 1 ErrMin= 5.81D-02
 ErrMax= 5.81D-02  0.00D+00 EMaxC= 1.00D-01 BMatC= 1.68D+00 BMatP= 1.68D+00
 IDIUse=3 WtCom= 4.19D-01 WtEn= 5.81D-01
 Coeff-Com:  0.100D+01
 Coeff-En:   0.100D+01
 Coeff:      0.100D+01
 Gap=     0.508 Goal=   None    Shift=    0.000
 GapD=    0.508 DampG=2.000 DampE=0.250 DampFc=0.5000 IDamp=-1.
 Damping current iteration by 5.00D-01
 RMSDP=8.34D-03 MaxDP=1.41D+00              OVMax= 6.68D-01

 Cycle   2  Pass 1  IDiag  1:
 RMSU=  4.14D-03    CP:  1.07D+00
 E= -1574.40366647809     Delta-E=        1.261294758656 Rises=F Damp=T
 DIIS: error= 4.14D-02 at cycle   2 NSaved=   2.
 NSaved= 2 IEnMin= 1 EnMin= -1575.66496123674     IErMin= 2 ErrMin= 4.14D-02
 ErrMax= 4.14D-02  0.00D+00 EMaxC= 1.00D-01 BMatC= 1.36D+00 BMatP= 1.68D+00
 IDIUse=3 WtCom= 5.86D-01 WtEn= 4.14D-01
 Coeff-Com:  0.466D+00 0.534D+00
 Coeff-En:   0.648D+00 0.352D+00
 Coeff:      0.541D+00 0.459D+00
 Gap=     0.002 Goal=   None    Shift=    0.000
 RMSDP=4.25D-03 MaxDP=6.40D-01 DE= 1.26D+00 OVMax= 9.43D-01

 Cycle   3  Pass 1  IDiag  1:
 RMSU=  1.75D-03    CP:  9.79D-01  7.85D-02
 E= -1576.77604326660     Delta-E=       -2.372376788519 Rises=F Damp=F
 DIIS: error= 2.87D-02 at cycle   3 NSaved=   3.
 NSaved= 3 IEnMin= 3 EnMin= -1576.77604326660     IErMin= 3 ErrMin= 2.87D-02
 ErrMax= 2.87D-02  0.00D+00 EMaxC= 1.00D-01 BMatC= 4.24D-01 BMatP= 1.36D+00
 IDIUse=3 WtCom= 7.13D-01 WtEn= 2.87D-01
 Coeff-Com:  0.279D+00 0.245D+00 0.476D+00
 Coeff-En:   0.186D+00 0.000D+00 0.814D+00
 Coeff:      0.253D+00 0.175D+00 0.573D+00
 Gap=     0.083 Goal=   None    Shift=    0.000
 RMSDP=1.15D-03 MaxDP=1.23D-01 DE=-2.37D+00 OVMax= 1.33D-01

 Cycle   4  Pass 1  IDiag  1:
 RMSU=  8.70D-04    CP:  9.91D-01  8.58D-02  5.76D-01
 E= -1576.90750366317     Delta-E=       -0.131460396567 Rises=F Damp=F
 DIIS: error= 2.35D-02 at cycle   4 NSaved=   4.
 NSaved= 4 IEnMin= 4 EnMin= -1576.90750366317     IErMin= 4 ErrMin= 2.35D-02
 ErrMax= 2.35D-02  0.00D+00 EMaxC= 1.00D-01 BMatC= 2.85D-01 BMatP= 4.24D-01
 IDIUse=3 WtCom= 7.65D-01 WtEn= 2.35D-01
 Coeff-Com:  0.866D-01 0.272D-01 0.433D+00 0.453D+00
 Coeff-En:   0.000D+00 0.000D+00 0.417D+00 0.583D+00
 Coeff:      0.663D-01 0.208D-01 0.429D+00 0.484D+00
 Gap=     0.094 Goal=   None    Shift=    0.000
 RMSDP=5.63D-04 MaxDP=5.85D-02 DE=-1.31D-01 OVMax= 1.10D-01

 Cycle   5  Pass 1  IDiag  1:
 RMSU=  2.42D-04    CP:  9.92D-01  7.78D-02  7.19D-01  4.92D-01
 E= -1577.14182850009     Delta-E=       -0.234324836919 Rises=F Damp=F
 DIIS: error= 5.22D-03 at cycle   5 NSaved=   5.
 NSaved= 5 IEnMin= 5 EnMin= -1577.14182850009     IErMin= 5 ErrMin= 5.22D-03
 ErrMax= 5.22D-03  0.00D+00 EMaxC= 1.00D-01 BMatC= 1.26D-02 BMatP= 2.85D-01
 IDIUse=3 WtCom= 9.48D-01 WtEn= 5.22D-02
 Coeff-Com:  0.164D-01-0.488D-02 0.193D+00 0.271D+00 0.525D+00
 Coeff-En:   0.000D+00 0.000D+00 0.000D+00 0.000D+00 0.100D+01
 Coeff:      0.156D-01-0.462D-02 0.183D+00 0.256D+00 0.550D+00
 Gap=     0.091 Goal=   None    Shift=    0.000
 RMSDP=1.56D-04 MaxDP=1.11D-02 DE=-2.34D-01 OVMax= 2.73D-02

 Cycle   6  Pass 1  IDiag  1:
 RMSU=  8.21D-05    CP:  9.90D-01  7.64D-02  7.23D-01  5.82D-01  5.67D-01
 E= -1577.15235404162     Delta-E=       -0.010525541530 Rises=F Damp=F
 DIIS: error= 2.81D-03 at cycle   6 NSaved=   6.
 NSaved= 6 IEnMin= 6 EnMin= -1577.15235404162     IErMin= 6 ErrMin= 2.81D-03
 ErrMax= 2.81D-03  0.00D+00 EMaxC= 1.00D-01 BMatC= 2.21D-03 BMatP= 1.26D-02
 IDIUse=3 WtCom= 9.72D-01 WtEn= 2.81D-02
 Coeff-Com:  0.229D-02-0.795D-02 0.654D-01 0.984D-01 0.336D+00 0.506D+00
 Coeff-En:   0.000D+00 0.000D+00 0.000D+00 0.000D+00 0.175D+00 0.825D+00
 Coeff:      0.223D-02-0.772D-02 0.636D-01 0.956D-01 0.332D+00 0.514D+00
 Gap=     0.091 Goal=   None    Shift=    0.000
 RMSDP=6.49D-05 MaxDP=2.72D-03 DE=-1.05D-02 OVMax= 1.21D-02

 Cycle   7  Pass 1  IDiag  1:
 RMSU=  3.50D-05    CP:  9.89D-01  7.38D-02  7.31D-01  5.50D-01  6.44D-01
                    CP:  5.30D-01
 E= -1577.15467792597     Delta-E=       -0.002323884354 Rises=F Damp=F
 DIIS: error= 6.17D-04 at cycle   7 NSaved=   7.
 NSaved= 7 IEnMin= 7 EnMin= -1577.15467792597     IErMin= 7 ErrMin= 6.17D-04
 ErrMax= 6.17D-04  0.00D+00 EMaxC= 1.00D-01 BMatC= 1.49D-04 BMatP= 2.21D-03
 IDIUse=3 WtCom= 9.94D-01 WtEn= 6.17D-03
 Coeff-Com:  0.139D-02-0.398D-02 0.144D-01 0.199D-01 0.993D-01 0.272D+00
 Coeff-Com:  0.597D+00
 Coeff-En:   0.000D+00 0.000D+00 0.000D+00 0.000D+00 0.000D+00 0.000D+00
 Coeff-En:   0.100D+01
 Coeff:      0.138D-02-0.395D-02 0.143D-01 0.198D-01 0.987D-01 0.270D+00
 Coeff:      0.600D+00
 Gap=     0.091 Goal=   None    Shift=    0.000
 RMSDP=1.81D-05 MaxDP=7.88D-04 DE=-2.32D-03 OVMax= 2.99D-03

 Cycle   8  Pass 1  IDiag  1:
 RMSU=  1.15D-05    CP:  9.89D-01  7.40D-02  7.31D-01  5.55D-01  6.48D-01
                    CP:  6.13D-01  6.80D-01
 E= -1577.15479943930     Delta-E=       -0.000121513324 Rises=F Damp=F
 DIIS: error= 2.55D-04 at cycle   8 NSaved=   8.
 NSaved= 8 IEnMin= 8 EnMin= -1577.15479943930     IErMin= 8 ErrMin= 2.55D-04
 ErrMax= 2.55D-04  0.00D+00 EMaxC= 1.00D-01 BMatC= 3.53D-05 BMatP= 1.49D-04
 IDIUse=3 WtCom= 9.97D-01 WtEn= 2.55D-03
 Coeff-Com:  0.156D-02-0.227D-02 0.563D-03-0.104D-02 0.106D-01 0.992D-01
 Coeff-Com:  0.359D+00 0.532D+00
 Coeff-En:   0.000D+00 0.000D+00 0.000D+00 0.000D+00 0.000D+00 0.000D+00
 Coeff-En:   0.903D-01 0.910D+00
 Coeff:      0.156D-02-0.226D-02 0.562D-03-0.104D-02 0.106D-01 0.989D-01
 Coeff:      0.358D+00 0.533D+00
 Gap=     0.091 Goal=   None    Shift=    0.000
 RMSDP=6.71D-06 MaxDP=3.37D-04 DE=-1.22D-04 OVMax= 1.27D-03

 Cycle   9  Pass 1  IDiag  1:
 RMSU=  4.21D-06    CP:  9.89D-01  7.37D-02  7.31D-01  5.54D-01  6.45D-01
                    CP:  6.15D-01  7.60D-01  6.43D-01
 E= -1577.15482668579     Delta-E=       -0.000027246487 Rises=F Damp=F
 DIIS: error= 1.19D-04 at cycle   9 NSaved=   9.
 NSaved= 9 IEnMin= 9 EnMin= -1577.15482668579     IErMin= 9 ErrMin= 1.19D-04
 ErrMax= 1.19D-04  0.00D+00 EMaxC= 1.00D-01 BMatC= 8.57D-06 BMatP= 3.53D-05
 IDIUse=3 WtCom= 9.99D-01 WtEn= 1.19D-03
 Coeff-Com:  0.130D-02-0.117D-02-0.295D-02-0.559D-02-0.195D-01 0.379D-02
 Coeff-Com:  0.107D+00 0.321D+00 0.597D+00
 Coeff-En:   0.000D+00 0.000D+00 0.000D+00 0.000D+00 0.000D+00 0.000D+00
 Coeff-En:   0.000D+00 0.000D+00 0.100D+01
 Coeff:      0.130D-02-0.117D-02-0.294D-02-0.558D-02-0.195D-01 0.378D-02
 Coeff:      0.107D+00 0.320D+00 0.597D+00
 Gap=     0.091 Goal=   None    Shift=    0.000
 RMSDP=3.45D-06 MaxDP=4.61D-04 DE=-2.72D-05 OVMax= 9.16D-04

 Cycle  10  Pass 1  IDiag  1:
 RMSU=  1.84D-06    CP:  9.89D-01  7.34D-02  7.30D-01  5.53D-01  6.41D-01
                    CP:  6.21D-01  7.73D-01  7.50D-01  6.37D-01
 E= -1577.15483545299     Delta-E=       -0.000008767202 Rises=F Damp=F
 DIIS: error= 1.83D-05 at cycle  10 NSaved=  10.
 NSaved=10 IEnMin=10 EnMin= -1577.15483545299     IErMin=10 ErrMin= 1.83D-05
 ErrMax= 1.83D-05  0.00D+00 EMaxC= 1.00D-01 BMatC= 2.49D-07 BMatP= 8.57D-06
 IDIUse=1 WtCom= 1.00D+00 WtEn= 0.00D+00
 Coeff-Com:  0.149D-03-0.812D-04-0.132D-03 0.509D-04-0.325D-02-0.880D-02
 Coeff-Com: -0.217D-01-0.382D-01 0.721D-01 0.100D+01
 Coeff:      0.149D-03-0.812D-04-0.132D-03 0.509D-04-0.325D-02-0.880D-02
 Coeff:     -0.217D-01-0.382D-01 0.721D-01 0.100D+01
 Gap=     0.091 Goal=   None    Shift=    0.000
 RMSDP=1.06D-06 MaxDP=9.38D-05 DE=-8.77D-06 OVMax= 2.22D-04

 Cycle  11  Pass 1  IDiag  1:
 RMSU=  5.68D-07    CP:  9.89D-01  7.32D-02  7.30D-01  5.53D-01  6.39D-01
                    CP:  6.20D-01  7.80D-01  7.60D-01  7.21D-01  1.10D+00
 E= -1577.15483566532     Delta-E=       -0.000000212332 Rises=F Damp=F
 DIIS: error= 8.04D-06 at cycle  11 NSaved=  11.
 NSaved=11 IEnMin=11 EnMin= -1577.15483566532     IErMin=11 ErrMin= 8.04D-06
 ErrMax= 8.04D-06  0.00D+00 EMaxC= 1.00D-01 BMatC= 3.79D-08 BMatP= 2.49D-07
 IDIUse=1 WtCom= 1.00D+00 WtEn= 0.00D+00
 Coeff-Com:  0.385D-04-0.160D-04 0.315D-04 0.213D-03-0.845D-03-0.354D-02
 Coeff-Com: -0.110D-01-0.230D-01 0.253D-01 0.509D+00 0.504D+00
 Coeff:      0.385D-04-0.160D-04 0.315D-04 0.213D-03-0.845D-03-0.354D-02
 Coeff:     -0.110D-01-0.230D-01 0.253D-01 0.509D+00 0.504D+00
 Gap=     0.091 Goal=   None    Shift=    0.000
 RMSDP=2.37D-07 MaxDP=1.46D-05 DE=-2.12D-07 OVMax= 4.02D-05

 Cycle  12  Pass 1  IDiag  1:
 RMSU=  1.61D-07    CP:  9.89D-01  7.33D-02  7.30D-01  5.53D-01  6.39D-01
                    CP:  6.20D-01  7.78D-01  7.57D-01  7.11D-01  1.10D+00
                    CP:  7.84D-01
 E= -1577.15483569759     Delta-E=       -0.000000032265 Rises=F Damp=F
 DIIS: error= 2.44D-06 at cycle  12 NSaved=  12.
 NSaved=12 IEnMin=12 EnMin= -1577.15483569759     IErMin=12 ErrMin= 2.44D-06
 ErrMax= 2.44D-06  0.00D+00 EMaxC= 1.00D-01 BMatC= 5.66D-09 BMatP= 3.79D-08
 IDIUse=1 WtCom= 1.00D+00 WtEn= 0.00D+00
 Coeff-Com:  0.393D-05-0.367D-06 0.334D-04 0.101D-03 0.321D-04-0.313D-03
 Coeff-Com: -0.146D-02-0.377D-02 0.102D-01 0.144D+00 0.259D+00 0.593D+00
 Coeff:      0.393D-05-0.367D-06 0.334D-04 0.101D-03 0.321D-04-0.313D-03
 Coeff:     -0.146D-02-0.377D-02 0.102D-01 0.144D+00 0.259D+00 0.593D+00
 Gap=     0.091 Goal=   None    Shift=    0.000
 RMSDP=1.14D-07 MaxDP=7.60D-06 DE=-3.23D-08 OVMax= 1.30D-05

 Cycle  13  Pass 1  IDiag  1:
 RMSU=  4.76D-08    CP:  9.89D-01  7.33D-02  7.30D-01  5.53D-01  6.39D-01
                    CP:  6.20D-01  7.77D-01  7.54D-01  7.07D-01  1.09D+00
                    CP:  7.69D-01  6.51D-01
 E= -1577.15483570246     Delta-E=       -0.000000004872 Rises=F Damp=F
 DIIS: error= 8.23D-07 at cycle  13 NSaved=  13.
 NSaved=13 IEnMin=13 EnMin= -1577.15483570246     IErMin=13 ErrMin= 8.23D-07
 ErrMax= 8.23D-07  0.00D+00 EMaxC= 1.00D-01 BMatC= 5.54D-10 BMatP= 5.66D-09
 IDIUse=1 WtCom= 1.00D+00 WtEn= 0.00D+00
 Coeff-Com:  0.135D-05 0.145D-06 0.213D-04 0.571D-04 0.687D-04 0.923D-05
 Coeff-Com: -0.255D-03-0.980D-03 0.664D-02 0.731D-01 0.148D+00 0.379D+00
 Coeff-Com:  0.395D+00
 Coeff:      0.135D-05 0.145D-06 0.213D-04 0.571D-04 0.687D-04 0.923D-05
 Coeff:     -0.255D-03-0.980D-03 0.664D-02 0.731D-01 0.148D+00 0.379D+00
 Coeff:      0.395D+00
 Gap=     0.091 Goal=   None    Shift=    0.000
 RMSDP=3.47D-08 MaxDP=2.21D-06 DE=-4.87D-09 OVMax= 4.59D-06

 Cycle  14  Pass 1  IDiag  1:
[...]
 0,0.00000103,-0.00000312,0.00001359,0.00002057,0.00000281,0.00000237,-
 0.00002001,-0.00000205,0.00000301,0.00000347,-0.19274104,0.11358056,-0
 .10058267,-0.00188493,-0.00167421,0.00273478,-0.00069414,-0.00050827,0
 .00129961,-0.00003381,0.00001114,-0.00001580,-0.00000364,0.00000143,-0
 .00000026,-0.00000170,-0.00000599,0.00000115,0.00000109,0.00000236,0.0
 0000195,-0.00000277,0.00000074,-0.00000149,-0.00001278,-0.00001407,-0.
 00000909,0.19648904,0.00003279,0.00001608,-0.00003654,0.00001742,0.000
 01719,-0.00003985,-0.00002584,0.00000380,0.00003850,-0.00000830,-0.000
 03634,-0.00001671,0.00001238,0.00001666,-0.00000424,-0.00000725,-0.000
 02271,-0.00000370,0.00000038,-0.00000421,0.00000042,-0.00000153,-0.000
 00232,0.00000225,-0.00000329,0.00000209,0.00000209,0.00000617,0.000002
 75,0.00000002,-0.00003088,-0.00000432,0.00000887,-0.00026264,-0.000537
 36,-0.00018517,0.00003606,-0.00004962,0.00009518,-0.00066200,0.0001558
 5,0.00032451,-0.00006186,-0.00003021,-0.00001893,-0.00001020,0.0000504
 8,-0.00000348,0.00000936,0.00002675,-0.00002041,0.00004229,-0.00000402
 ,0.00001248,-0.00033868,0.00091548,-0.00017185,0.00000087,0.00021231,0
 .00020419,-0.00002403,0.00001478,0.00002660,0.00032576,0.00034951,-0.0
 0488441,0.00126478,-0.00460521,-0.00429355,0.00000486,-0.00003240,0.00
 004591,0.00002134,0.00000162,-0.00002152,0.00000739,-0.00000184,-0.000
 01403,0.00001879,-0.00001163,0.00002077,-0.00003586,-0.00000944,0.0000
 0334,-0.00000663,0.00000268,-0.00000437,0.00009465,0.00002891,0.000036
 65,0.00017065,-0.00025560,-0.00000286,-0.00001335,-0.00000900,-0.00001
 703,0.00000392,0.00002362,-0.00000915,0.00000432,0.00000187,0.00000321
 ,-0.01014643,0.01087171,-0.00709669,0.02078026,-0.00931077,0.01467374,
 0.00104181,-0.00066852,0.00094392,0.00001666,0.00001618,-0.00002285,-0
 .00003464,0.00000305,-0.00000741,-0.00001533,-0.00000983,0.00000234,-0
 .00001823,-0.00000807,0.00001037,-0.00000164,-0.00000293,0.00000105,0.
 00003023,0.00001487,-0.00001697,0.00000516,0.00000076,0.00000152,0.000
 00325,-0.00000344,0.00000286,-0.00018825,0.00015106,-0.00008060,-0.000
 00702,-0.00000414,0.00000500,0.00001153,-0.00000235,-0.00000233,0.0000
 0165,-0.00000111,-0.00000215,0.11463077,-0.13889880,0.06359008,-0.0012
 7109,0.00005939,0.00183132,-0.00121108,0.00088499,0.00048551,0.0000255
 2,-0.00001660,0.00001959,0.00000281,-0.00000045,0.00000015,0.00000154,
 0.00000486,0.00000039,0.00000113,-0.00000344,-0.00000090,0.00000249,0.
 00000043,0.00000170,-0.00000894,0.00000107,0.00000028,-0.12421356,0.14
 063328,-0.00004769,-0.00000436,-0.00003587,-0.00000685,-0.00001391,0.0
 0001329,0.00001655,0.00000656,-0.00001081,-0.00000041,0.00001469,0.000
 00950,-0.00000140,-0.00001494,-0.00000146,-0.00000639,0.00001998,-0.00
 000089,0.00000138,0.00000262,-0.00000060,0.00000070,0.00000228,-0.0000
 0165,0.00000393,0.00000050,-0.00000191,-0.00000800,-0.00000230,0.00000
 569,-0.00004755,-0.00004661,0.00000396,0.00001764,-0.00002247,-0.00057
 920,-0.00000219,-0.00001140,0.00000215,0.00033332,0.00021114,-0.000907
 24,0.00001694,-0.00001071,-0.00002825,-0.00000638,0.00000739,-0.000008
 27,-0.00000888,-0.00000439,-0.00000124,-0.00000998,0.00000186,-0.00000
 729,-0.00075458,0.00090377,0.00044742,0.00006095,0.00023163,0.00000129
 ,0.00001491,0.00001770,0.00000028,-0.00491253,-0.00538239,0.00058333,-
 0.00127675,-0.00351486,0.00161275,0.00001480,-0.00001544,0.00000534,-0
 .00000041,-0.00000007,-0.00000365,-0.00000115,0.00001253,0.00000771,-0
 .00000318,0.00000780,-0.00000279,0.00001280,0.00000109,-0.00000151,0.0
 0000462,0.00000004,0.00000208,-0.00009321,-0.00000703,0.00004308,0.000
 04274,-0.00012235,0.00001348,-0.00002644,-0.00001031,-0.00003481,-0.00
 000929,-0.00000245,0.00000224,0.00000116,-0.00000575,-0.00000315,-0.01
 826975,0.01418365,-0.00693458,0.00806960,-0.00614155,0.00874651,0.0006
 4759,-0.00025524,0.00015437,-0.00000438,-0.00001024,0.00001584,-0.0000
 0971,0.00000579,-0.00000889,0.00001111,-0.00000228,-0.00001421,0.00000
 928,0.00000886,-0.00000421,0.00000191,0.00000329,0.00000078,-0.0000074
 8,-0.00000406,0.00000342,-0.00000215,0.00000016,0.00000043,-0.00000097
 ,0.00000157,-0.00000095,-0.00003797,0.00003810,-0.00006288,0.00002561,
 0.00002452,0.00002161,-0.00001522,-0.00001036,0.00000118,-0.00000080,0
 .00000293,0.00000202,-0.09994636,0.06252459,-0.10791362,0.00297590,0.0
 0141639,-0.00126485,0.00086636,0.00127127,-0.00050972,-0.00001516,-0.0
 0000191,-0.00000026,-0.00000297,0.00000077,-0.00000035,-0.00000011,-0.
 00000102,0.00000277,0.00000095,0.00000123,0.00000153,-0.00000115,0.000
 00063,-0.00000107,-0.00000440,-0.00000766,-0.00001989,0.11198140,-0.06
 543421,0.10662598,-0.00004768,-0.00000937,0.00001561,-0.00000055,0.000
 01009,0.00000364,-0.00000844,-0.00000401,0.00000693,-0.00000039,-0.000
 00770,-0.00000413,0.00000409,0.00000519,0.00000673,-0.00000313,-0.0000
 2084,0.00000413,-0.00000172,-0.00000179,0.00000029,-0.00000138,-0.0000
 0071,0.00000030,-0.00000365,-0.00000037,0.00000097,0.00000186,0.000004
 45,-0.00000475,0.00012478,0.00011459,-0.00008707,0.00002886,0.00000655
 ,0.00003275,0.00001184,0.00001105,0.00001494,-0.00013255,-0.00001778,0
 .00001936,-0.00000365,0.00045229,-0.00034982,0.00000369,0.00000825,-0.
 00000334,0.00028182,0.00007911,-0.00010436,0.00007779,-0.00001885,0.00
 004351,-0.00001451,-0.00001398,-0.00003721,-0.00001782,0.00000922,-0.0
 0002259,0.00000515,-0.00000103,-0.00000138,0.00002321,-0.00007338,-0.0
 0000130,0.00009199,0.00005276,0.00007776,0.00117339,0.00107021,-0.0017
 7686,-0.00407453,0.00195281,-0.00309896,0.00000308,-0.00000749,-0.0000
 0837,-0.00000095,-0.00005635,0.00006356,-0.00005134,-0.00001302,0.0000
 1267,-0.00000281,0.00000427,-0.00000671,0.00000999,0.00000294,0.000010
 42,0.00002474,-0.00001094,0.00001318,0.00000332,-0.00000439,-0.0000017
 8,-0.00000183,0.00000181,0.00000405,-0.00000068,0.00001860,0.00000791,
 -0.00000550,0.00000012,-0.00000358,-0.00002290,0.00001671,-0.00002899,
 0.00000118,-0.00000448,0.00000005,0.00782106,0.00298430,-0.00338808,-0
 .01694129,-0.01226575,0.01343318,-0.00074573,-0.00066234,0.00081924,-0
 .00000635,-0.00000712,0.00000223,-0.00000143,-0.00000155,-0.00000019,-
 0.00001153,0.00002590,-0.00003053,-0.00000872,0.00000219,-0.00000495,-
 0.00000136,-0.00000243,0.00000145,-0.00001620,0.00001292,-0.00001055,-
 0.00000258,0.00000359,-0.00000123,-0.00000007,0.00000109,0.00000462,0.
 00000062,-0.00000154,-0.00000172,0.00000944,-0.00001052,-0.00000046,-0
 .00000435,0.00000437,0.00000146,-0.00000618,-0.00000024,-0.00000173,-0
 .24980993,-0.09283744,0.09955772,0.00069733,-0.00005584,0.00039256,0.0
 0123551,0.00022039,0.00004277,-0.00000074,-0.00000149,-0.00000063,0.00
 000439,-0.00000327,0.00000329,-0.00000080,0.00000375,0.00000241,-0.000
 00434,0.00000249,-0.00000218,0.26017423,-0.00002278,0.00007997,0.00003
 281,0.00001047,0.00001011,-0.00000828,-0.00000525,0.,0.00000993,-0.000
 00231,-0.00000868,-0.00000246,0.00000210,0.00000440,0.00000528,-0.0000
 1834,-0.00002121,0.00000215,-0.00000016,-0.00000122,0.00000002,-0.0000
 0128,-0.00000036,-0.00000018,-0.00000230,-0.00000090,0.00000229,-0.000
 00039,-0.00000052,0.00000022,0.00004759,-0.00049728,0.00026213,0.00003
 168,0.00003751,-0.00001807,-0.00001426,0.00004215,0.00002489,0.0001356
 5,-0.00000591,-0.00003229,0.00024824,-0.00136837,-0.00111550,-0.000010
 48,0.00000488,0.00000875,-0.00099994,0.00000513,-0.00028707,-0.0000888
 1,0.00001370,0.00002639,0.00001095,-0.00000402,0.00003358,0.00000497,-
 0.00001459,-0.00002258,0.00001397,0.00000612,-0.00001276,-0.00000049,0
 .00004136,0.00000191,-0.00004599,-0.00000623,-0.00004508,0.00107470,0.
 00291549,0.00687423,0.00208086,0.00474021,0.00420667,0.00000084,-0.000
 00503,-0.00000312,0.00001266,-0.00000828,0.00008291,-0.00004681,-0.000
 02146,0.00000859,-0.00000930,-0.00001338,0.00003510,-0.00000988,-0.000
 00834,-0.00001112,-0.00002285,0.00003064,0.00000104,0.00000325,-0.0000
 0315,-0.00001160,-0.00000084,0.00000530,0.00000510,0.00000119,0.000015
 50,0.00001717,-0.00000067,0.00000127,-0.00000318,0.00001140,-0.0000256
 6,0.00000996,0.00000109,-0.00000057,0.00000088,-0.01663878,-0.00288555
 ,0.00855598,0.00726558,0.00840146,-0.00291988,0.00037319,-0.00018844,-
 0.00054480,-0.00000490,-0.00000489,0.00000306,-0.00000064,-0.00000090,
 -0.00000008,0.00003644,0.00005332,-0.00000960,-0.00000703,-0.00001135,
 -0.00003529,0.00000136,-0.00001200,-0.00000188,0.00002273,-0.00001112,
 0.00001435,0.,0.00000075,0.00000028,-0.00000167,0.00000068,0.00000215,
 0.00000017,-0.00000118,-0.00000127,-0.00000846,0.00001912,0.00000417,0
 .00000167,0.00000089,-0.00000146,-0.00000124,-0.00000028,-0.00000051,-
 0.09250110,-0.09480481,0.05760361,0.00026311,-0.00196107,-0.00271851,-
 0.00031612,-0.00201056,-0.00220621,-0.00000086,-0.00000123,-0.00000015
 ,0.00000378,-0.00000758,0.00001353,0.00000049,0.00000103,-0.00000049,0
 .00000032,0.00000042,0.00000009,0.09897555,0.08804384,-0.00001672,0.00
 009456,0.00001140,0.00000634,-0.00000022,-0.00001148,0.00000451,0.0000
 0305,0.00000432,-0.00000290,-0.00000085,0.00000142,0.00000137,-0.00000
 253,0.00000160,-0.00001407,-0.00000057,0.00000413,0.00000160,0.0000007
 7,-0.00000039,0.00000004,0.00000040,-0.00000079,0.00000071,-0.00000005
 ,0.00000037,-0.00000317,-0.00000285,0.00000122,0.00012166,0.00014478,-
 0.00045791,0.00004105,-0.00004517,-0.00004580,-0.00002096,0.00000512,0
 .00000478,0.00010632,-0.00005340,0.00001645,-0.00034465,-0.00078523,-0
 .00130141,-0.00001389,-0.00000412,0.00000327,0.00108067,-0.00028123,0.
 00019748,0.00011690,0.00004129,0.00000977,-0.00003043,0.00001860,-0.00
 000851,0.00001833,0.00002073,0.00002147,0.00000494,-0.00000023,-0.0000
 0612,0.00002038,0.00002356,0.00000615,-0.00001177,-0.00002561,-0.00000
 764,-0.00191600,0.00679543,0.00022596,-0.00282458,0.00435393,0.0026935
 1,-0.00000076,0.00000327,0.00000347,0.00000198,0.00007916,-0.00003568,
 0.00003138,0.00000179,-0.00001013,-0.00000076,0.00004107,-0.00002560,-
 0.00000565,-0.00000306,-0.00000287,0.00000325,-0.00001717,-0.00000221,
 -0.00000058,0.00000664,0.00000721,0.00000384,0.00000404,-0.00000068,-0
 .00000757,-0.00000324,-0.00001008,0.00000012,0.00000393,-0.00000366,0.
 00000663,-0.00000367,0.00001384,-0.00000083,0.00000280,-0.00000031,0.0
 2031912,0.00991884,-0.00560426,-0.01044488,-0.00414077,0.00985860,-0.0
 0052305,-0.00061887,0.00008895,0.00000009,0.00000215,0.00000036,0.0000
 0072,0.00000100,-0.00000002,-0.00003916,-0.00000168,0.00004288,0.00000
 875,-0.00004436,0.00000993,0.00000138,-0.00000389,-0.00001209,-0.00000
 706,0.00000931,-0.00000179,0.00000129,-0.00000201,0.00000060,-0.000000
 83,-0.00000088,-0.00000184,0.,0.00000054,0.00000117,-0.00000594,0.0000
 1164,0.00000201,0.00000284,-0.00000169,-0.00000118,0.00000191,0.000000
 10,0.00000002,0.09922713,0.05743324,-0.10580402,-0.00000175,-0.0027369
 6,-0.00090373,0.00070898,-0.00215272,-0.00116201,0.00000032,0.00000067
 ,0.00000036,-0.00000403,0.00001321,-0.00001057,0.00000151,-0.00000217,
 -0.00000163,0.00000148,-0.00000119,0.00000107,-0.10549542,-0.06764839,
 0.10230486,-0.05098103,0.00113465,0.00861330,-0.00080891,-0.02745869,-
 0.01488442,0.00044533,0.00189676,0.00465877,-0.00108228,-0.00566418,-0
 .00276351,0.00884598,0.00573581,0.00130258,-0.01606879,0.00094826,0.02
 267716,0.00064936,0.00048942,-0.00052075,-0.00028425,0.00029728,-0.000
 42864,0.00019085,0.00044448,-0.00051008,-0.00141605,0.00016357,-0.0016
 0994,-0.04680550,0.00260992,-0.01032260,-0.04805113,0.02284108,-0.0016
 1122,-0.04731400,0.01185166,-0.00478227,-0.04001750,0.00220398,-0.0183
 3429,-0.05082998,0.00363914,0.00726937,-0.00443571,-0.01090400,-0.0011
 7126,-0.03135120,-0.00873801,0.00687934,0.00224476,0.01247656,-0.01167
 020,0.00832857,0.00641567,0.01100057,-0.00392214,-0.02093814,-0.016996
 29,0.00379989,0.00605585,0.00529528,-0.00228289,0.03111172,0.01404060,
 -0.02486090,-0.00420128,-0.02652181,-0.03387969,0.00855148,-0.01044396
 ,0.00576825,-0.01290506,0.01556081,0.00043036,-0.00523657,0.00123486,-
 0.00124982,0.00213361,-0.00205870,0.00556899,-0.00301230,0.00407423,0.
 00031961,-0.00150070,0.00148399,-0.00277519,0.00372354,-0.00252612,-0.
 00710821,0.01448347,-0.00269705,-0.00137493,-0.00154753,0.00007272,0.0
 0282643,0.00079970,0.00454234,-0.00170148,0.00209644,-0.00018769,-0.00
 053956,-0.00162060,-0.00227810,0.01322028,-0.01502955,0.00115576,-0.00
 059378,-0.00000581,0.00189342,-0.00089521,-0.00260711,0.00119796,0.007
 47150,0.00384159,-0.00357926,0.00000675,0.00100436,-0.00170316,-0.0032
 3040,-0.00189881,0.00172349,-0.00028070,-0.00087553,-0.00057260,-0.005
 62738,-0.00197990,0.00218146,-0.00003403,-0.00012486,-0.00017251,0.000
 74603,-0.00040783,0.00018048,0.00593256,-0.00486776,0.00318982,-0.0002
 2644,0.00080268,0.00088623,0.00027521,-0.00000172,-0.00036858,-0.00004
 799,0.00027865,-0.00020628,-0.00199228,0.01211384,0.00489314,0.0004211
 5,-0.00064623,0.00057494,0.00096134,-0.00018569,0.00000145,-0.00538580
 ,0.00234168,-0.00300029,0.00024299,-0.00014300,-0.00015889,0.00095589,
 0.00050805,-0.00053016,-0.00058133,0.00021519,-0.00046735,0.00009577,-
 0.00018469,0.00009842,-0.00011879,-0.00025037,0.00033625,-0.00004889,-
 0.00002294,0.00041189,0.00014425,0.00014793,-0.00011017,0.36831206,0.0
 0448013,-0.05449496,0.00339494,-0.01072957,-0.02324650,-0.00296934,-0.
 00317722,-0.00054128,-0.00148074,-0.00016518,-0.00339103,-0.00169784,0
 .00286866,0.00198784,-0.00508824,-0.00031091,0.01293943,0.00485673,-0.
 00036626,0.00001669,0.00013697,0.00040907,-0.00011267,0.00013304,0.000
 94844,0.00041982,-0.00033564,0.00187860,-0.00072233,-0.00106660,0.0117
 4300,-0.05574002,0.00063419,0.00705888,-0.05474266,-0.01991631,0.00273
 458,-0.05503967,-0.00893095,0.01759239,-0.06288922,0.00868285,0.001159
 13,-0.05489608,0.00546347,-0.02361930,-0.02028698,0.00897654,0.0044441
 1,0.00652714,-0.00527596,0.00707722,-0.00686172,0.01282865,0.02437018,
 -0.02366806,0.01000373,-0.01609804,-0.00967774,-0.02007375,0.01123572,
 -0.00817429,-0.01663696,0.01243115,-0.01362925,0.00436578,-0.00866853,
 0.01098582,-0.00427068,-0.00832133,0.01018988,-0.01155256,-0.01180827,
 -0.00928313,0.01701481,0.00114277,0.00058960,-0.00304101,-0.00440220,0
 .00224390,0.00244176,-0.00061934,0.00394842,0.00295133,0.00083991,-0.0
 0200164,-0.00118349,-0.00035946,-0.00201749,-0.00145596,-0.00261577,0.
 01302336,0.00271493,0.00037888,0.00031490,0.00214040,-0.00150409,0.006
 68767,0.00208443,-0.00029945,-0.00003340,0.00185201,0.00265507,-0.0041
 5385,-0.00129443,0.00235641,-0.00675869,-0.00368628,-0.00196566,-0.000
 46693,-0.00099671,0.00246538,0.00064676,0.00503755,0.00652520,0.003584
 90,0.00382148,-0.00056040,-0.00215132,-0.00095982,-0.00320426,-0.00336
 957,0.00151700,0.00002636,0.00053528,0.00015472,-0.00067209,-0.0011308
 4,0.00083336,-0.00101364,0.00028132,-0.00058096,-0.00016410,0.00001876
 ,-0.00034560,0.00724710,-0.00601944,0.00394725,-0.00026727,0.00033986,
 0.00012756,0.00024035,0.00107051,0.00019810,0.00006040,0.00081235,0.00
 033806,-0.00029526,0.00151717,0.00049701,0.00041553,-0.00031659,0.0007
 1359,-0.00043524,0.00038602,-0.00042035,-0.00329974,0.00091132,-0.0017
 0881,0.00072707,0.00046882,-0.00050871,0.00002051,-0.00035915,-0.00028
 083,0.00021050,0.00007913,0.00038554,-0.00017534,-0.00058904,-0.000598
 73,0.00000027,0.00010621,0.00029994,-0.00028433,0.00006218,0.00013485,
 0.00005845,-0.00055914,-0.00045086,-0.03039917,0.40662958,0.01294016,0
 .01331774,-0.04148728,0.00158385,0.00856018,0.00543136,0.00013173,-0.0
 0447257,0.00064276,0.00135402,0.00074517,-0.00145797,-0.00006825,-0.00
 053797,0.00177447,0.01525967,0.00033912,-0.00965235,-0.00040717,-0.000
 47388,0.00057919,-0.00021731,-0.00001893,-0.00009310,-0.00034917,-0.00
 006650,-0.00008297,0.00069901,0.00085624,-0.00099089,-0.01607672,0.001
 50911,-0.04517618,-0.00242004,-0.02695703,-0.04740734,-0.00688938,-0.0
 1457938,-0.04549065,-0.02469924,0.01119783,-0.04738162,0.01803526,0.00
 477812,-0.04113833,-0.00622615,-0.00495115,0.00549566,-0.00776427,-0.0
 0311245,0.00533261,-0.00900916,0.01145062,-0.00814334,0.00867194,-0.00
 686080,0.00691648,-0.00620779,-0.01688539,-0.01290390,0.00508852,-0.01
 371418,-0.00824773,-0.00166224,0.01141841,0.00690446,-0.01788558,0.003
 05022,-0.01305097,0.00781662,-0.00290491,0.00556410,0.00761473,0.01294
 698,-0.00955938,0.00405347,0.00116132,0.00049437,0.00299592,0.00290180
 ,0.00063565,0.00088989,0.00131145,0.00228632,-0.00041120,-0.00072289,-
 0.00094483,-0.00201004,0.00324865,0.00039998,-0.00311323,0.00468679,0.
 00120438,0.00069781,0.00001419,-0.00068990,0.00163050,0.00006384,0.002
 22534,-0.00090386,0.00000504,-0.00097817,0.00188928,-0.00328268,0.0004
 9785,0.00260454,-0.00520654,0.00119528,0.00030985,0.00055732,-0.000680
 55,-0.00385539,0.00239017,0.00052889,-0.00055430,0.00021666,0.00185508
 ,0.00108386,0.00005618,-0.00092020,-0.00053430,-0.00153065,-0.00108198
 ,0.00017862,0.00049531,0.00054092,-0.00158473,0.00031197,-0.00109193,0
 .00051060,-0.00009460,0.00053731,0.00016817,-0.00012391,-0.00007187,0.
 00121572,-0.00159683,-0.00034100,-0.00018163,0.00069599,0.00051812,-0.
 00007268,0.00008156,0.00015578,-0.00002226,0.00018786,-0.00007695,-0.0
 0079946,0.00190400,-0.00035268,0.00050198,-0.00049396,0.00051075,0.000
 02713,-0.00010708,0.00016459,0.00135262,0.00077199,-0.00138957,-0.0006
 3076,-0.00012779,0.00057909,-0.00024525,-0.00026716,-0.00007509,-0.000
 22420,0.00022674,-0.00024927,0.00009268,-0.00030233,-0.00025139,0.0000
 1338,-0.00002342,0.00002572,-0.00002244,0.00001830,0.00003496,-0.00012
 081,-0.00018742,-0.00010423,0.01575747,0.00812553,0.28853210\\0.000002
 04,-0.00000874,0.00000415,-0.00001360,0.00000594,0.00000167,-0.0000028
 2,0.00000201,0.00002152,0.00000618,0.00000165,-0.00000556,-0.00000635,
 -0.00000407,-0.00000004,0.00001167,0.00000013,-0.00000135,0.00000945,0
 .00000112,-0.00000264,0.00000110,-0.00000033,0.00000641,-0.00000287,-0
 .00000797,0.00000033,-0.00000404,-0.00000331,-0.00000149,-0.00001699,0
 .00000674,0.00000663,0.00000471,-0.00000533,0.00000557,-0.00000108,-0.
 00002142,-0.00001124,-0.00000629,0.00000946,-0.00001640,-0.00002475,-0
 .00001074,-0.00000342,0.00001907,0.00000306,-0.00000121,0.00001608,0.0
 0000507,-0.00001704,0.00000865,-0.00000188,-0.00000293,0.00000831,0.00
 001468,0.00001223,0.00000350,-0.00001033,-0.00000173,0.00000610,0.0000
 1363,0.00000703,-0.00001898,-0.00002222,-0.00002051,0.00002313,0.00000
 453,0.00002361,0.00002097,-0.00000351,0.00001351,0.00000484,0.00000494
 ,-0.00000866,0.00000731,-0.00000939,-0.00000856,-0.00000510,-0.0000018
 2,0.00000737,-0.00000203,0.00000189,0.00000591,0.00000244,0.00000131,0
 .00000289,-0.00000776,0.00000764,0.00000091,-0.00000575,0.00000312,0.0
 0000148,-0.00000252,0.00000751,-0.00000044,0.00000287,-0.00000340,0.00
 000318,0.00000575,-0.00000190,0.00000142,-0.00001073,0.00000817,-0.000
 00312,-0.00001589,0.00000360,-0.00000869,0.00000067,-0.00000965,-0.000
 00193,-0.00000779,0.00000337,-0.00000788,-0.00000670,0.00000160,-0.000
 00013,0.00000161,-0.00000124,0.00000064,0.00000233,0.00000340,0.000003
 36,0.00000204,0.00000471,0.00000955,0.00000450,0.00000760,-0.00000117,
 0.00000176,0.00000624,0.00000131,0.00000495,0.00000233,0.00000048,-0.0
 0000192,-0.00000193,-0.00000481,-0.00000416,-0.00000186,-0.00000291,-0
 .00000212,0.00000356,-0.00000291,0.00000313,-0.00000267,0.00000144,-0.
 00000099,-0.00001140,-0.00000337,-0.00000008,-0.00000378,-0.00000401,0
 .00000027,-0.00000369,-0.00000081,0.00000059,0.00000266,0.00000488,0.0
 0000068,0.00000464,0.00000136,-0.00000024,0.00000024,-0.00000158,0.000
 00712,-0.00000173,-0.00000028,0.00000252,0.00000467,0.00000103,-0.0000
 0505,0.00000099,-0.00000230,-0.00000441,-0.00000478,-0.00000244,-0.000
 00082,0.00000172,-0.00000161,-0.00001452,0.00000515,0.00000328\\\@


 IMAGINATION WILL OFTEN CARRY US TO WORLDS THAT NEVER WERE.
 BUT WITHOUT IT, WE GO NOWHERE. -- CARL SAGAN (COSMOS)
 Job cpu time:       5 days 17 hours 11 minutes 58.8 seconds.
 Elapsed time:       0 days  8 hours 57 minutes  0.8 seconds.
 File lengths (MBytes):  RWF=  14672 Int=      0 D2E=      0 Chk=    224 Scr=     32
 Normal termination of Gaussian 16 at Sun Oct 20 07:34:55 2024.
